<VTKFile type="UnstructuredGrid" version="1.0" byte_order="LittleEndian" header_type="UInt64">
  <UnstructuredGrid>
    <Piece NumberOfPoints="63" NumberOfCells="4">
      <PointData>
        <DataArray type="Float32" Name="Ellipsoid" format="ascii">
           0 0 0 0
           0 0 0 0
           1 1 1 1
           1 1 1 1
           1 1 1 1
           2 2 2 2
           2 2
           3
           0 0 0 0
           1 1 1 1
           1 1 1 1
           3 2 2 2
           2
           5

           0 0 0 0
           1 1 1 1
           2
           0 0
           1 1 1
           2
           0 0
           1
        </DataArray>
      </PointData>
      <CellData>
        <DataArray type="Float32" Name="SrcCellNum" format="ascii">
           0 1 2 3
        </DataArray>
      </CellData>
      <Points>
        <DataArray type="Float32" Name="Points" NumberOfComponents="3" format="ascii">
         0   0   0
         4   0   0
         4   4   0
         0   4   0
         0   0   4
         3.5 0   4.5
         4.5 4.5 4.5
         0   4   4
         2   0   0
         4   2   0
         2   4   0
         0   2   0
         2   0   4
         4   2   4
         2   4   4
         0   2   4
         0.5 0.5 2
         4   0   2
         0   4   2
         4   4   2
         0   2   2
         4   2   2
         2   0   2
         2   4   2
         2   2   0
         2   2   4
         2   2   2

         8   0   0
         8   4   0
         8   0   4
         8   4   4
         6   0   0
         8   2   0
         6   4   0
         6   0   4
         8   2   4
         6   4   4
         8   0   2
         8   4   2
         8   2   2
         6   0   2
         6   4   2
         6   2   0
         6   2   4
         6   2   2

        -1    0    0
        -1    4    0
        -1    4    4
        -1    0    4
        -1    2    0
        -1    4    2
        -1    2    4
        -0.5  0.5  2
        -1    2    2

         4   -1    0
         3.5 -1    4.5
         2   -1    0
         4   -1    2
         2   -1    4
         2   -1    2

         0   -1    0
         0   -1    4
         0   -0.5  2
        </DataArray>
      </Points>
      <Cells>
        <DataArray type="Int64" Name="connectivity" format="ascii">
           0  1  2  3
           4  5  6  7
           8  9 10 11
          12 13 14 15
          16 17 18 19
          20 21 22 23 24 25
          26
           1 27 28  2
           5 29 30  6
          31 32 33  9
          34 35 36 13
          17 37 19 38
          21 39 40 41 42 43
          44

          45 46 47 48
          49 50 51 52
          53

          60 54 55 61
          56 57 58 62
          59
        </DataArray>
        <DataArray type="Int64" Name="offsets" format="ascii">
          27 54 63 72
        </DataArray>
        <DataArray type="UInt8" Name="types" format="ascii">
          72 72 70 70
        </DataArray>
      </Cells>
    </Piece>
  </UnstructuredGrid>
</VTKFile>
