# vtk DataFile Version 3.0
vtk output
ASCII
DATASET UNSTRUCTURED_GRID
POINTS 687 float
5 7 10 5 7 10 5 8 11.25 
5 8.25 11 5 8 10 5 7 11.25 
5 7.5 13 5 8 12.5 5 7 10.3125 
5 7 10.625 5 7 10.9375 5 7.38766 11.25 
5 7.64592 11.25 5 7.80052 11.25 5 7.90878 11.25 
5 8.01755 11.158 5 8.07322 11.0732 5 8.15798 11.0176 
5 8.25 10.1644 5 8.25 10.3763 5 8.25 10.5485 
5 8.25 10.6871 5 8.25 10.8026 5 8.25 10.9045 
5 7.74324 10 5 7.41786 10 5 7 11.6875 
5 7 12.125 5 7 12.5625 5 7.30926 13 
5 7.68405 12.9649 5 7.85355 12.8536 5 7.96489 12.684 
5 8 12.3065 5 8 12.1233 5 8 11.9567 
5 8 11.8086 5 8 11.6771 5 8 11.5591 
5 8 11.4509 5 8 11.3489 5 7.93205 11.0425 
5 7.80734 11.0245 5 7.67859 10.99 5 7.51824 10.9746 
5 7.32515 10.9611 5 8.01086 10.2002 5 8.03769 10.3933 
5 8.06323 10.5667 5 8.09469 10.7162 5 8.13242 10.8231 
5 8.14712 10.922 5 7.39469 10.6822 5 7.65901 10.6508 
5 7.8705 10.6089 5 7.93308 10.788 5 7.93412 10.9257 
5 7.7282 10.8379 5 7.82322 10.9294 5 7.54704 10.8316 
5 8.04809 10.9431 5 8.03786 10.8514 5 7.44218 10.3424 
5 7.75573 10.2431 5 7.82664 10.4299 5 7.64261 10.4744 
5 7.91347 11.1466 5 7.79547 11.136 5 7.66053 11.123 
5 7.52214 11.1159 5 7.44943 11.7066 5 7.68075 11.6735 
5 7.84745 11.667 5 7.40022 12.1904 5 7.64784 12.1371 
5 7.83294 12.1302 5 7.85639 12.4875 5 7.71852 12.5169 
5 7.5621 12.5627 5 7.35291 12.6213 5 7.84497 12.3142 
5 7.69057 12.3325 5 7.55096 12.3619 5 7.62604 12.7508 
5 7.76505 12.6851 5 7.86211 12.6189 5 7.49298 12.7907 
5 7.85524 11.8031 5 7.83896 11.9463 5 7.6677 11.8951 
5 7.73456 11.7906 5 7.8089 11.3764 5 7.85382 11.5144 
5 7.6916 11.5296 5 7.67156 11.3874 5 7.56029 11.5433 
5 7.53983 11.3935 5 7.90972 11.3537 5 7.92118 11.4397 
5 24 8 5 24 9 5 19.75 8 
5 16 9 5 16 11 5 11.25 9 
5 11.25 11 5 8.25 9.923 5 0 13 
5 0 10 5 7 13 0 8.1543 11.019 
0 8.07322 11.0732 0 8.01904 11.1543 0 8 11.25 
2.5 8.25 11 2.5 8.15432 11.019 2.5 8.07324 11.0732 
2.5 8.01903 11.1543 2.5 8 11.25 5 8.15434 11.019 
5 8.01902 11.1543 0 7.96192 12.6914 0 7.85355 12.8536 
0 7.6914 12.9619 2.5 8 12.5 2.5 7.96192 12.6914 
2.5 7.85355 12.8536 2.5 7.6914 12.9619 2.5 7.5 13 
5 7.96192 12.6914 5 7.6914 12.9619 0 24 9 
0 24 8 0 16 9 0 16 11 
0 0 10 0 0 13 0 8.25 11 
0 8 12.5 0 7.5 13 0 26 8 
7 26 8 7 24 8 7 19.75 8 
7 16 9 7 11.25 9 7 8 10 
7 0 10 7 -2 10 0 -2 10 
0 0 -11 0 0 -8 0 -2 -8 
5 -2 -8 7 -2 -8 5 0 -8 
5 0 -11 5 8 -11 5 8 -8 
7 8 -8 5 11.25 -11 5 11.25 -9 
7 11.25 -9 5 16 -11 5 16 -9 
7 16 -9 5 19.75 -11 5 19.75 -10 
7 19.75 -10 0 24 -11 0 24 -10 
5 24 -10 5 24 -11 0 26 -10 
5 26 -10 7 26 -10 0 -12 -4 
0 -12 4 0.59691 -12 -3.95521 1.23343 -12 -3.80508 
1.86684 -12 -3.53764 2.4031 -12 -3.19767 2.82877 -12 -2.82808 
3.32044 -12 -2.2304 3.73551 -12 -1.43038 3.93533 -12 -0.71638 
3.99986 -12 0.03336 3.92368 -12 0.77765 3.70276 -12 1.51312 
3.35693 -12 2.17509 2.89656 -12 2.75861 2.35395 -12 3.23403 
1.75721 -12 3.59335 1.15512 -12 3.82958 0.56093 -12 3.96047 
0 36 4 0 -10.743 4 0 -8.8877 4 
0 -6.64749 4 0 -4.45202 4 0 -0.91936 4 
0 4.14518 4 0 6.58748 4 0 9.66416 4 
0 12.0556 4 0 14.4989 4 0 17.6266 4 
0 20.3196 4 0 24.9607 4 0 29.4472 4 
0 31.7102 4 0 33.6144 4 0 35.0694 4 
0 36 -4 0.59993 36 3.95476 1.23847 36 3.80344 
1.87132 36 3.53528 2.4058 36 3.19564 2.82825 36 2.8286 
3.31559 36 2.2376 3.73171 36 1.44025 3.93289 36 0.72964 
3.99999 36 0.00729 3.93339 36 -0.72693 3.7303 36 -1.44391 
3.33354 36 -2.21076 2.85148 36 -2.80519 2.28639 36 -3.28214 
1.63682 36 -3.64977 1.11455 36 -3.84158 0.56461 36 -3.95995 
0 34.661 -4 0 32.5627 -4 0 29.9725 -4 
0 27.9548 -4 0 24.936 -4 0 20.302 -4 
0 17.5542 -4 0 14.3512 -4 0 11.9689 -4 
0 9.52824 -4 0 6.40852 -4 0 3.7104 -4 
0 -0.45165 -4 0 -4.9424 -4 0 -7.504 -4 
0 -9.50153 -4 0 -11.0253 -4 0 2.06879 -4 
0 1.24817 -4 0 0.49795 -4 0 2.22891 4 
0 0.81573 4 0 -0.2654 4 0 21.9979 -4 
0 23.2408 -4 0 24.3368 -4 0 21.9532 4 
0 23.1639 4 0 24.2218 4 0 -2.85941 -4 
0 -1.4497 -4 0 -2.71248 4 0 -1.53432 4 
0 26.5263 -4 0 25.5061 -4 0 27.2927 4 
0 25.7706 4 2.28036 11.9291 -3.28633 1.91748 7.67834 -3.51045 
1.39183 4.80584 -3.75004 3.10004 4.74612 -2.5278 3.99902 4.81728 0.08855 
3.99929 11.9788 0.07526 3.01126 4.7799 2.63293 1.3206 4.94069 3.77571 
1.85925 7.75999 3.54164 2.26005 12.0455 3.30033 4 19.1687 0.00563 
3.05144 19.2212 -2.58625 1.3639 19.1697 -3.76029 1.9216 16.2623 -3.5082 
1.88377 16.3456 3.52866 1.37297 19.2307 3.75698 3.06558 19.3026 2.56948 
0.86913 -9.0538 -3.90444 1.36253 -6.45576 -3.76079 2.03706 -9.19679 -3.44244 
3.04279 -9.69606 -2.59642 3.11128 -6.58598 -2.51395 3.7595 -9.34266 -1.36607 
3.99985 -9.72826 0.03484 3.99986 -6.60452 0.03337 1.03898 -4.23036 -3.86271 
3.0157 -3.54152 -2.62784 2.05455 -4.03413 -3.43203 3.99994 -3.50264 0.0214 
3.74655 -3.86932 -1.40121 1.00023 2.98374 -3.87292 1.99481 2.63411 -3.46709 
2.98987 2.17564 -2.65719 3.74575 2.45304 -1.40334 3.9997 2.15958 0.04896 
3.72707 -9.3715 1.45222 2.9589 -9.71773 2.69164 3.0344 -6.63176 2.60623 
1.83862 -9.28024 3.55239 0.83367 -8.38579 3.91216 1.43719 -6.66098 3.73289 
2.82548 -3.41986 2.83137 3.71431 -3.8546 1.48454 0.80231 -4.99714 3.91871 
1.77296 -4.35265 3.58561 3.70922 2.45004 1.49723 2.93365 2.16411 2.71913 
1.91758 2.60035 3.5104 0.80755 2.87316 3.91763 0.98341 21.0045 -3.87723 
2.96254 21.8143 -2.68763 1.97163 21.3626 -3.48032 4 21.8263 -0.0017 
3.72906 21.5439 -1.4471 0.84747 28.4195 -3.90919 1.34399 31.0003 -3.76745 
1.95439 28.5374 -3.49004 2.87262 27.5375 -2.78353 3.07745 30.8031 -2.55525 
3.72995 27.9379 -1.4448 3.99996 27.5711 0.01726 3.99996 30.7106 0.01826 
1.04168 33.1935 -3.86198 3.05671 33.7806 -2.58002 2.08878 33.3701 -3.4113 
3.99999 33.7855 0.01071 3.75229 33.4182 -1.38575 2.97043 21.8482 2.67891 
3.73117 21.5642 1.44167 0.98998 21.028 3.87556 1.97903 21.3942 3.47613 
3.71189 27.9005 1.4906 2.82811 27.4453 2.82874 3.04412 30.7018 2.59487 
1.93597 28.3735 3.50029 0.86823 28.146 3.90463 1.3057 30.7039 3.78089 
3.02368 33.7595 2.61866 3.74268 33.397 1.41152 0.86284 33.1639 3.90583 
2.02665 33.2848 3.44858 0.53032 -10.5458 -3.96469 1.24149 -10.7951 -3.80246 
1.85972 -10.739 -3.54139 2.44302 -10.9691 -3.16728 3.06586 -11.1071 -2.56914 
3.48459 -10.8306 -1.96409 3.7465 -10.7956 -1.40133 3.93436 -10.9762 -0.72168 
3.99993 -10.9299 0.02358 0.54517 -3.49606 -3.96268 1.86409 -2.61933 -3.53909 
1.12497 -2.64827 -3.83855 2.9571 -2.35459 -2.69361 2.44919 -2.36751 -3.16251 
3.72692 -2.41852 -1.45261 3.39583 -2.27834 -2.11384 3.99998 -2.31918 0.01383 
3.93224 -2.2631 -0.73315 0.48601 2.25066 -3.97036 1.03264 1.61027 -3.86441 
1.64176 1.01027 -3.64755 2.37715 1.13073 -3.21701 2.91683 0.91806 -2.73717 
3.38248 1.09831 -2.13514 3.72047 0.97203 -1.46904 3.93264 1.103 -0.73102 
3.99992 0.92061 0.02526 3.92483 -10.9867 0.77183 3.71071 -10.8422 1.49354 
3.3623 -10.9829 2.16677 2.9046 -10.9215 2.75014 2.34975 -10.9585 3.23708 
1.73632 -10.8351 3.6035 1.08728 -11.0164 3.84939 0.76552 -9.85185 3.92606 
3.70832 -2.40724 1.49945 3.9251 -2.25836 0.77044 2.9009 -2.24119 2.75405 
3.3515 -2.23326 2.18344 2.02728 -2.75573 3.44821 2.48468 -2.05245 3.1347 
0.75188 -3.60736 3.9287 1.14269 -2.47261 3.83331 3.92189 1.10123 0.78663 
3.70058 0.96959 1.51845 3.351 1.09403 2.18422 2.88114 0.91095 2.77471 
2.33539 1.11346 3.24745 1.59742 0.95017 3.66719 0.99331 1.51146 3.87471 
0.55744 1.91642 3.96097 0.49282 21.7568 -3.96953 1.62708 22.9996 -3.65412 
1.03614 22.3695 -3.86347 2.91706 23.0854 -2.73692 2.36484 22.8705 -3.22607 
3.71028 23.0214 -1.4946 3.37648 22.8891 -2.14462 3.9999 23.0778 -0.02841 
3.92467 22.8842 -0.77261 0.51979 26.9399 -3.96608 1.2839 26.7399 -3.78835 
2.11377 26.9015 -3.39588 2.52051 26.1316 -3.10597 2.93463 26.3152 -2.71807 
3.36843 26.2864 -2.15724 3.71832 26.4622 -1.47449 3.92922 26.2994 -0.74917 
3.99998 26.3685 0.01184 0.55062 33.9394 -3.96192 1.97271 35.0239 -3.47972 
1.14169 34.811 -3.83361 3.08146 35.1197 -2.55042 2.58816 34.8824 -3.04982 
3.73846 34.839 -1.42265 3.48539 34.8596 -1.96266 3.99999 34.9623 0.00668 
3.93189 35.0007 -0.73504 3.72154 23.0373 1.46633 3.93176 22.8918 0.73573 
2.91935 23.0975 2.73448 3.38141 22.9046 2.13684 1.64466 23.007 3.64624 
2.37652 22.8746 3.21747 0.49487 21.7358 3.96927 1.0407 22.3613 3.86225 
3.92575 26.2931 0.76713 3.70601 26.448 1.50515 3.34197 26.263 2.198 
2.88063 26.2536 2.77524 2.47122 26.0537 3.14532 2.08148 26.8047 3.41576 
1.2917 26.6842 3.7857 0.68296 26.9319 3.94126 3.73438 34.8292 1.43333 
3.92972 34.9963 0.74652 3.0571 35.1329 2.57956 3.47547 34.8531 1.98018 
1.86379 34.7857 3.53925 2.44652 34.9947 3.16457 0.53235 34.5863 3.96442 
1.24874 34.8315 3.80009 0.52811 -1.66823 -3.96498 0.45204 -0.84639 -3.97438 
1.07292 -1.10687 -3.85342 1.78369 -1.62004 -3.58029 1.06326 -0.32748 -3.8561 
0.75907 -0.48267 -3.92732 1.56772 -0.81885 -3.67998 1.35017 -0.49395 -3.76524 
2.33715 -1.17613 -3.24619 2.91025 -1.38515 -2.74416 2.25846 -0.53158 -3.30142 
1.95131 -0.75918 -3.49176 2.87334 -0.66995 -2.78279 2.61278 -0.56887 -3.02876 
3.35142 -1.10734 -2.18357 3.71158 -1.36738 -1.49136 3.31205 -0.49745 -2.24284 
3.09024 -0.6604 -2.53977 3.69991 -0.6572 -1.52008 3.54448 -0.54599 -1.85383 
3.92279 -1.09408 -0.78213 4 -1.34705 -0.00312 3.9109 -0.48582 -0.83958 
3.81268 -0.64663 -1.20974 3.99995 -0.64705 -0.01926 3.98089 -0.53487 -0.39052 
0.35215 1.2147 -3.98447 0.60895 0.58968 -3.95338 1.09375 0.62285 -3.84756 
1.36124 0.41025 -3.76125 1.6086 0.31642 -3.6623 2.01162 0.35229 -3.45737 
2.34331 0.45551 -3.24174 2.63225 0.38019 -3.01185 2.89599 0.38569 -2.75921 
3.15088 0.35872 -2.46413 3.37306 0.45257 -2.15 3.5589 0.39074 -1.82599 
3.71344 0.41132 -1.48674 3.84224 0.37865 -1.1123 3.93218 0.46215 -0.73344 
3.98386 0.3871 -0.35896 3.99996 0.39629 0.01684 3.92995 -1.09117 0.7453 
3.70953 -1.35634 1.49646 3.93889 -0.48438 0.69651 3.98788 -0.64025 0.3112 
3.71222 -0.65148 1.48977 3.8347 -0.53622 1.13801 3.36409 -1.08533 2.16399 
2.90685 -1.3059 2.74777 3.38661 -0.48683 2.12859 3.57735 -0.64249 1.78958 
2.88925 -0.63887 2.76626 3.13069 -0.53105 2.48974 2.35752 -1.09709 3.23142 
1.80695 -1.5696 3.5686 2.29815 -0.43655 3.27391 2.65143 -0.62659 2.99499 
[...]
POINT_DATA 687
FIELD FieldData 2
displacement 3 687 float
0 0 0 0 0 -7 0 0 -7 
0 0 -7 0 0 -7 0 0 -7 
0 0 -7 0 0 -7 0 0 -7 
0 0 -7 0 0 -7 0 0 -7 
0 0 -7 0 0 -7 0 0 -7 
0 0 -7 0 0 -7 0 0 -7 
0 0 -7 0 0 -7 0 0 -7 
0 0 -7 0 0 -7 0 0 -7 
0 0 -7 0 0 -7 0 0 -7 
0 0 -7 0 0 -7 0 0 -7 
0 0 -7 0 0 -7 0 0 -7 
0 0 -7 0 0 -7 0 0 -7 
0 0 -7 0 0 -7 0 0 -7 
0 0 -7 0 0 -7 0 0 -7 
0 0 -7 0 0 -7 0 0 -7 
0 0 -7 0 0 -7 0 0 -7 
0 0 -7 0 0 -7 0 0 -7 
0 0 -7 0 0 -7 0 0 -7 
0 0 -7 0 0 -7 0 0 -7 
0 0 -7 0 0 -7 0 0 -7 
0 0 -7 0 0 -7 0 0 -7 
0 0 -7 0 0 -7 0 0 -7 
0 0 -7 0 0 -7 0 0 -7 
0 0 -7 0 0 -7 0 0 -7 
0 0 -7 0 0 -7 0 0 -7 
0 0 -7 0 0 -7 0 0 -7 
0 0 -7 0 0 -7 0 0 -7 
0 0 -7 0 0 -7 0 0 -7 
0 0 -7 0 0 -7 0 0 -7 
0 0 -7 0 0 -7 0 0 -7 
0 0 -7 0 0 -7 0 0 -7 
0 0 -7 0 0 -7 0 0 -7 
0 0 -7 0 0 -7 0 0 -7 
0 0 -7 0 0 -7 0 0 -7 
0 0 -7 0 0 -7 0 0 -7 
0 0 -7 0 0 -7 0 0 -7 
0 0 -7 0 0 -7 0 0 -7 
0 0 -7 0 0 -7 0 0 -7 
0 0 -7 0 0 -7 0 0 -7 
0 0 -7 0 0 -7 0 0 -7 
0 0 -7 0 0 -7 0 0 -7 
0 0 -7 0 0 -7 0 0 -7 
0 0 -7 0 0 -7 0 0 -7 
0 0 -7 0 0 -7 0 0 -7 
0 0 -7 0 0 -7 0 0 -7 
0 0 -7 0 0 -7 0 0 -7 
0 0 -7 0 0 -7 0 0 -7 
0 0 -7 0 0 -7 0 0 -7 
0 0 -7 0 0 -7 0 0 -7 
0 0 -7 0 0 -7 0 0 -7 
0 0 9.65 0 0 9.65 0 0 9.65 
0 0 9.65 0 0 9.65 0 0 9.65 
0 0 9.65 0 0 9.65 0 0 9.65 
0 0 9.65 0 0 9.65 0 0 9.65 
0 0 9.65 0 0 9.65 0 0 9.65 
0 0 9.65 0 0 9.65 0 0 9.65 
0 0 9.65 0 0 9.65 0 0 9.65 
0 0 9.65 0 0 9.65 0 0 9.65 
0 0 9.65 0 0 9.65 0 0 0 
0 0 0 0 0 0 0 0 0 
0 0 0 0 0 0 0 0 0 
0 0 0 0 0 0 0 0 0 
0 0 0 0 0 0 0 0 0 
0 0 0 0 0 0 0 0 0 
0 0 0 0 0 0 0 0 0 
0 0 0 0 -1.32936 1.58081 0 -1.90883 3.73563 
0 -0.797568 5.60861 0 0.918655 4.48881 0 -0.373079 -1 
0 -0.266706 1.7211 0 0.265434 1.58267 0 0.30645 0 
0 0.44672 0 0 0.66804 -0.165617 0 0.173941 -2 
0 0.227001 -2 0 0.18755 -3 0 -1.30775 2.35267 
0 -0.24674 3.00693 0 0.4076 2.183 0 0.32164 0.984941 
0 0 0 0 0 0 0 0 0 
0 0 0 0 0 0 0 0 0 
0 0 0 0 0 0 0 0 0 
0 0 0 0 0 0 0 0 0 
0 0 0 0 0 0 0 0 0 
0 0 0 0 0 0 0 0 0 
0 0.33612 -1.39131 0 -0.132622 -2.82414 0 -1.52352 -2.47416 
0 -2.02298 -0.326295 0 -0.056469 3.65 -0 -0.214772 2.65 
0 -0.360969 2.65 0 -0.48246 2.65 -0 -0.50653 2.65 
0 -0.565995 2.65 0 -0.695068 2.65 0 -0.874659 2.79035 
0 -0.120528 5.65 0 5.05441 -2.88324 0 1.98339 -5.95014 
0 -0.58879 -4.13729 0 -0.67336 -1.56389 0 -0.905929 3.61319 
0 -0.765952 4.2702 0 -0.49795 4.96246 0 -0.664393 1.06117 
0 -0.587343 -0.192165 0 -0.306666 -1 0 -0.058481 2.65 
0 0.08291 2.82664 0 -0.081558 3.65 0 0.30416 -2 
0 0.331009 -2.38216 -0 0.172491 -3 0 2.85941 3.19006 
0 -0.137782 5.65 0 1.05329 1.57731 0 -0.410332 -1 
0 -1.19711 2.11238 0 -0.03339 3.65 0 -1.53364 -0.059382 
0 0.20265 -3 1.70079 -0.49815 1.93633 1.42448 -0.708556 2.3263 
0.973296 -0.742886 2.81403 1.89996 -0.387842 4.11297 3.44058 -0.597936 3.1174 
3.36429 0.02327 1.62243 1.98874 -0.079006 0.420148 0.974726 -0.074532 1.54428 
1.30523 0.24001 0.920989 1.64951 0.54104 0.69967 3.12287 0.22912 0.217667 
1.68488 -0.276379 1.23625 0.714987 -0.241508 2.41029 1.07325 -0.35611 2.1582 
1.03878 0.25339 -1.52866 0.676001 0.22443 -1.75698 1.71253 0.25046 -0.56948 
1.09587 -0.242846 -4.62666 2.64991 3.06221 -4.86857 2.29548 -0.601851 -3.69068 
2.50553 -1.12391 -2.05481 4.87991 1.33419 -2.41816 3.22805 -1.37301 -0.934633 
2.70727 -1.59277 0.214307 5.10369 -0.491506 1.07045 1.60829 4.52442 -0.734619 
3.35885 2.44611 1.10742 2.90046 3.778 -0.031716 4.17577 0.280418 1.92084 
4.26723 1.29801 1.05233 0.565905 -0.858161 3.10754 1.14498 -0.665323 3.21368 
1.69982 -0.473474 3.30688 2.49934 -0.345826 3.05334 3.43836 -0.386378 2.3917 
2.78041 -1.80252 1.38895 1.88184 -1.80039 1.98087 3.66732 -0.951723 3.90409 
1.38927 -1.94184 3.05834 0.787363 -1.74687 4.14941 1.79144 -0.860635 5.11492 
2.54936 0.510623 2.90343 3.82461 0.063934 2.73288 0.95375 0.498894 4.86789 
1.93608 0.698626 4.07972 2.42647 -0.322062 1.50277 1.64848 -0.386617 1.21435 
1.1191 -0.432522 1.28438 0.474581 -0.514707 1.37271 0.470323 -0.1327 2.52723 
1.5126 -9.9e-05 1.56176 0.972188 -0.076371 2.13032 3.26852 0.072151 0.299232 
2.26695 -0.10881 1.0971 0.681448 -1.95523 -0.97338 1.23803 -0.86877 -2.75864 
1.51825 -1.6048 -1.03839 1.93371 -1.12277 -0.161363 2.71932 -0.32757 -1.83237 
2.869 -0.356998 -0.379581 3.07789 0.03038 0.235326 3.46677 0.350649 0.139184 
0.656281 0.140998 -2.33272 1.56503 0.50349 -1.31593 1.2519 0.302818 -2.02463 
2.00631 0.7183 0.042037 2.17444 0.628922 -0.773991 1.51652 0.304461 -0.916744 
2.30068 0.11936 -0.44167 0.45523 0.25815 -1.87556 0.954718 0.267509 -1.47613 
2.82404 -0.200152 0.839549 1.84397 -0.85178 0.613623 2.62263 -0.10965 2.0726 
1.42228 -1.21719 1.32809 0.633594 -1.50082 1.10115 1.15721 -0.62694 2.86364 
1.52732 0.60413 1.40173 2.15847 0.694919 0.878021 0.53227 0.333778 2.41816 
1.20522 0.446694 2.12339 0.299363 -0.82272 -2.30979 0.568052 -0.84124 -1.82573 
0.875352 -0.83372 -1.7009 0.922322 -0.84527 -1.22425 0.959216 -0.78177 -0.806763 
1.3812 -1.00095 -0.769334 1.45859 -1.03325 -0.522923 1.30719 -1.01661 -0.216422 
1.2954 -1.05052 0.051341 0.687674 3.80265 1.33003 1.56977 2.19781 3.24656 
0.960489 2.50532 3.52048 2.23447 1.41449 2.94066 1.8162 1.70098 3.34649 
3.15558 0.797174 2.17258 2.63382 1.13741 2.5087 3.56711 0.065584 2.14728 
3.45834 0.320362 2.05984 0.254701 -0.901376 3.49245 0.507269 -0.804646 3.88465 
0.760398 -0.613921 4.24162 1.19342 -0.540976 3.91684 1.57801 -0.389767 3.8558 
2.0391 -0.323507 3.78514 2.47504 -0.294165 3.11904 3.03374 -0.265855 2.42486 
3.28625 -0.297863 2.35822 1.2302 -1.08027 0.28607 1.24383 -1.16847 0.584779 
1.01251 -1.12908 0.741117 0.881351 -1.14788 0.931848 0.71363 -1.15791 1.07588 
0.564609 -1.20772 1.29451 0.285735 -1.09989 1.20395 0.470569 -1.71859 2.59115 
2.98604 -0.013574 2.2001 3.38146 -0.110363 2.26873 1.92871 0.186955 1.52497 
2.37881 0.093924 1.94752 1.49296 0.679137 1.79869 1.48901 0.194862 1.00566 
0.734488 1.05493 3.12933 0.786406 0.796221 1.21561 2.92413 -0.319597 2.21337 
2.40317 -0.365204 1.48155 1.99695 -0.374888 0.81578 1.54799 -0.437241 0.579273 
1.18096 -0.515121 0.502788 0.75649 -0.55459 0.154059 0.498456 -0.643654 0.539631 
0.28943 -0.646439 0.79759 0.22702 -0.079701 2.61953 0.69607 0.06983 2.47685 
0.453064 -0.002069 2.51347 1.48157 0.032541 1.94944 1.08738 0.078668 2.12868 
2.32361 -0.032471 1.1446 1.92358 -0.004589 1.79462 3.15259 0.02421 0.299133 
2.82765 -0.040371 0.42261 0.302402 -1.54844 1.36535 0.697785 -1.35797 1.53166 
1.1884 -1.23362 1.00733 1.271 -0.64181 1.73206 1.61312 -0.653959 1.18014 
2.00478 -0.520441 0.734679 2.48853 -0.303749 0.357442 2.88022 -0.023661 0.228782 
3.00198 0.03446 0.276931 0.267431 0.240589 -1.89404 0.477983 0.32175 -0.891462 
0.324528 0.322571 -1.21185 0.692653 0.35862 -0.593371 0.733127 0.384522 -0.890493 
1.06753 0.489964 -0.417514 1.00761 0.46331 -0.58336 1.02504 0.501343 0.014414 
1.03154 0.481479 -0.191682 2.36671 0.11577 -0.46633 2.89462 0.04826 0.219318 
1.48251 0.253509 -1.32642 1.93655 0.1789 -1.13684 0.692247 0.338669 -1.93851 
1.08174 0.334059 -1.54001 0.219942 0.289339 -1.96927 0.435477 0.337309 -1.90488 
2.89805 0.05344 0.335515 2.48194 -0.168569 0.209783 1.97778 -0.351509 -0.160827 
1.56165 -0.443579 -0.652464 1.22961 -0.40938 -1.18677 1.13661 -0.92688 -0.487575 
0.691136 -1.03907 -0.884309 0.372866 -1.21095 -0.612467 1.06642 0.525971 0.450792 
1.0319 0.498798 0.216571 0.672408 0.401112 0.603456 1.00271 0.509529 0.614532 
0.536169 0.42643 1.09808 0.626519 0.420338 0.86981 0.176532 0.41515 1.40729 
0.356959 0.404857 1.1826 0.25059 -0.137824 5.61498 0.217371 -0.125225 5.62438 
0.507715 -0.117429 5.50342 0.812434 -0.073347 5.23029 0.507112 -0.103814 5.5061 
0.364116 -0.113759 5.57732 0.701393 -0.113699 5.32998 0.61747 -0.114617 5.41524 
1.09123 -0.112682 4.89619 1.49761 -0.127989 4.39416 1.0516 -0.15895 4.95142 
0.876821 -0.130816 5.14176 1.47025 -0.181037 4.43279 1.27545 -0.172228 4.67876 
1.95615 -0.155806 3.83357 2.54487 -0.099809 3.14136 1.88697 -0.210959 3.89284 
1.66145 -0.194125 4.18977 2.43339 -0.172316 3.17008 2.17157 -0.201799 3.50383 
2.99101 -0.055348 2.66531 3.53013 -0.085301 2.35571 2.97133 -0.154151 2.53731 
2.67179 -0.150083 2.85974 3.35737 -0.153522 2.3531 3.31515 -0.13715 2.34733 
0.171172 -0.757173 4.29013 0.287229 -0.513279 4.89372 0.49042 -0.493966 4.8086 
0.603467 -0.363916 4.95473 0.719722 -0.31642 4.93206 0.936948 -0.35229 4.68229 
1.12501 -0.383552 4.44114 1.30419 -0.349728 4.30725 1.51125 -0.327026 4.11484 
1.7383 -0.292265 3.92151 1.9805 -0.285826 3.8 2.2039 -0.276874 3.47599 
2.4457 -0.261272 3.13674 2.72671 -0.24265 2.7623 3.01569 -0.233791 2.47517 
3.25083 -0.231909 2.35085 3.26574 -0.25103 2.35956 3.09646 -0.216757 2.21522 
2.59802 -0.382155 1.50354 3.03277 -0.255504 2.22474 3.29486 -0.187003 2.35045 
2.45813 -0.385848 1.51023 2.69631 -0.338108 1.86199 2.02296 -0.435928 0.83601 
1.56494 -0.456109 0.25223 1.98501 -0.425793 0.87141 2.23861 -0.412295 1.21042 
1.51902 -0.430735 0.23374 1.72903 -0.436716 0.51026 1.13713 -0.418983 -0.23142 
0.827153 -0.409374 -0.5686 1.10134 -0.386312 -0.27391 1.33666 -0.417123 0.00501 
0.701596 -0.362072 -0.68769 0.901561 -0.375813 -0.4891 0.472688 -0.372498 -0.86432 
0.259186 0.046624 -0.316914 0.46374 -0.322527 -0.87172 0.595231 -0.338084 -0.77864 
0.164264 -0.367143 -0.98426 0.275508 -0.327263 -0.95589 3.17364 -0.271944 2.3541 
2.91302 -0.311265 2.18033 2.6351 -0.352003 1.83356 2.38255 -0.37688 1.47905 
2.14074 -0.398145 1.12174 1.92842 -0.400361 0.78987 1.72784 -0.405145 0.48737 
1.52662 -0.392252 0.21053 1.31973 -0.37705 -0.042684 1.12969 -0.404105 -0.034443 
0.929255 -0.36491 -0.295976 0.735156 -0.294974 -0.68071 0.617045 -0.33946 -0.611257 
0.490248 -0.473906 -0.363935 0.280937 -0.521195 -0.3274 0.212971 -0.640756 0.304673 
0.178934 0.025209 2.67803 0.455622 0.071221 2.81192 0.256339 0.069769 2.8557 
0.704524 0.047239 2.88688 0.587062 0.05616 2.89273 1.07171 0.063471 2.49563 
0.90117 0.05969 2.69194 1.49096 0.031269 2.15714 1.25688 0.046831 2.3623 
1.8988 0.004441 1.80088 1.71176 0.009088 1.90987 2.32149 -0.018162 1.15718 
2.10265 -0.0022 1.48702 2.84302 -0.02412 0.472206 2.58524 -0.022991 0.78418 
3.17346 0.0072 0.302705 3.05214 -0.015822 0.331723 0.105398 -0.057381 3.64429 
0.260778 -0.023738 3.61439 0.282378 -0.06682 3.60906 0.516137 -0.069589 3.51228 
0.578157 -0.033989 3.47321 0.675334 -0.056009 3.41121 0.757503 -0.035209 3.31459 
0.862609 -0.010161 3.18515 0.914582 -0.022921 3.13489 1.06521 -0.01852 2.95239 
1.1245 -0.004299 2.87494 1.27323 5.9e-05 2.68434 1.45763 0.010679 2.44255 
1.51672 0.016579 2.39422 1.62667 0.016479 2.21254 1.8358 0.013451 1.91359 
1.93275 0.00211 1.84961 2.11365 -0.002119 1.51335 2.36726 -0.02297 1.17411 
2.48528 -0.043009 1.16001 2.59094 -0.030328 0.86982 2.85577 -0.02632 0.523555 
2.97039 -0.034729 0.44361 3.1586 -0.00717 0.336301 3.22421 0.027959 0.304851 
3.22631 0.0781 0.300753 2.89497 0.051091 0.169706 3.11401 0.02597 0.289553 
2.40169 0.106149 -0.43162 2.66053 0.076731 -0.06781 1.91841 0.176041 -1.1466 
2.12927 0.146929 -0.82966 1.49812 0.21834 -1.52419 1.72761 0.190019 -1.26505 
1.07086 0.279588 -1.91514 1.24518 0.244381 -1.76785 0.749416 0.224239 -2.43009 
0.926093 0.28199 -2.0703 0.461049 0.308448 -2.38156 0.598822 0.24868 -2.48326 
0.176139 0.33708 -2.13927 0.266473 0.314692 -2.4146 3.19033 0.033789 0.28503 
2.99292 0.040579 0.193133 3.04675 0.038399 0.217558 2.65584 0.06291 -0.15072 
2.39453 0.092199 -0.52492 2.52051 0.062811 -0.51187 2.12884 0.128361 -0.87764 
1.85078 0.158201 -1.26834 1.94029 0.13624 -1.22155 1.63175 0.170971 -1.57975 
1.45653 0.172501 -1.80982 1.51152 0.157872 -1.77451 1.28989 0.174042 -2.02059 
1.07284 0.17696 -2.28651 1.11462 0.165859 -2.2419 0.885809 0.174369 -2.50706 
0.70648 0.175249 -2.69474 0.843242 0.162171 -2.55718 0.609486 0.175202 -2.78493 
0.493461 0.17268 -2.87159 0.517264 0.18922 -2.85693 0.294764 0.175162 -2.95497 
0.182018 0.18725 -2.98277 0.245235 -0.39541 -2.09192 0.211929 -0.112311 5.62602 
0.408937 -0.101808 5.55925 0.529138 -0.14871 5.38106 0.64082 -0.125759 5.40766 
0.776734 -0.14405 5.2687 0.950629 -0.169679 5.07894 1.13416 -0.202036 4.87334 
1.30487 -0.212643 4.66639 1.50167 -0.226088 4.4162 1.75132 -0.234021 4.08634 
1.98472 -0.246406 3.77252 2.19024 -0.239086 3.48094 2.43721 -0.224927 3.14663 
2.75964 -0.192789 2.72674 3.05889 -0.199842 2.43844 3.2245 -0.192758 2.38083 
3.33452 -0.201697 2.36929 3.16948 -0.241464 2.32908 2.89456 -0.303467 2.16443 
2.64575 -0.347824 1.83478 2.39813 -0.385997 1.48754 2.12077 -0.4111 1.08444 
1.89802 -0.419302 0.7568 1.70705 -0.419411 0.48598 1.50761 -0.411806 0.21395 
1.2655 -0.391208 -0.08783 1.11701 -0.361572 -0.27896 0.960307 -0.356052 -0.44055 
0.7687 -0.332738 -0.63213 0.612862 -0.310965 -0.7745 0.514801 -0.292917 -0.84758 
0.374815 -0.289679 -0.92119 0.191179 -0.285925 -0.98008 0.164321 0.01742 3.26294 
0.36199 0.027441 3.19614 0.504659 0.025699 3.1198 0.634108 -0.03042 3.2331 
0.813169 -0.04998 3.2681 0.972564 -0.0341 3.08017 1.12985 -0.024512 2.87848 
1.27836 -0.0054 2.67945 1.4375 0.007059 2.46531 1.67356 0.01664 2.14252 
1.91378 0.002329 1.78011 2.10841 -0.003611 1.49037 2.34277 -0.012451 1.15845 
2.6463 -0.024519 0.74212 2.91933 -0.019649 0.432838 3.13788 -0.00791 0.319337 
3.2248 0.010938 0.306144 3.10939 0.030769 0.269739 2.87512 0.0529 0.139066 
2.5746 0.081268 -0.20751 2.33237 0.110908 -0.56109 2.12108 0.13661 -0.85747 
1.93176 0.159559 -1.13268 1.68445 0.176719 -1.49561 1.43846 0.18297 -1.82976 
1.22912 0.18376 -2.09646 1.09189 0.183679 -2.27123 0.916377 0.180701 -2.4785 
0.750615 0.177639 -2.65836 0.63887 0.174169 -2.77107 0.547949 0.16267 -2.8431 
0.392315 0.169121 -2.84761 0.194826 0.17926 -2.85995 2.89482 -0.356556 3.12193 
2.70797 0.145521 1.28908 2.56205 -0.21236 2.15051 2.37593 0.27209 0.444294 

thickness 1 687 float
0.907029 0.907029 0.907029 0.907029 0.907029 0.907029 0.907029 0.907029 0.907029 
0.907029 0.907029 0.907029 0.907029 0.907029 0.907029 0.907029 0.907029 0.907029 
0.907029 0.907029 0.907029 0.907029 0.907029 0.907029 0.907029 0.907029 0.907029 
0.907029 0.907029 0.907029 0.907029 0.907029 0.907029 0.907029 0.907029 0.907029 
0.907029 0.907029 0.907029 0.907029 0.907029 0.907029 0.907029 0.907029 0.907029 
0.907029 0.907029 0.907029 0.907029 0.907029 0.907029 0.907029 0.907029 0.907029 
0.907029 0.907029 0.907029 0.907029 0.907029 0.907029 0.907029 0.907029 0.907029 
0.907029 0.907029 0.907029 0.907029 0.907029 0.907029 0.907029 0.907029 0.907029 
0.907029 0.907029 0.907029 0.907029 0.907029 0.907029 0.907029 0.907029 0.907029 
0.907029 0.907029 0.907029 0.907029 0.907029 0.907029 0.907029 0.907029 0.907029 
0.907029 0.907029 0.907029 0.907029 0.907029 0.907029 0.907029 0.907029 0.907029 
0.907029 0.907029 0.907029 0.907029 0.907029 0.907029 0.907029 0.907029 0.907029 
0.907029 0.907029 0.907029 0.907029 0.907029 0.907029 0.907029 0.907029 0.907029 
0.907029 0.907029 0.907029 0.907029 0.907029 0.907029 0.907029 0.907029 0.907029 
0.907029 0.907029 0.907029 0.907029 0.907029 0.907029 0.907029 0.907029 0.907029 
0.907029 0.907029 0.907029 0.907029 0.907029 0.907029 0.907029 0.907029 0.907029 
0.907029 0.907029 0.907029 0.907029 0.907029 0.907029 0.907029 0.907029 0.907029 
0.907029 0.907029 0.907029 0.907029 0.907029 0.907029 0.907029 0.907029 0.907029 
0.907029 0.907029 0.907029 0.907029 0.907029 0.907029 0.907029 0.907029 0.907029 
0.907029 0.907029 0.907029 0.907029 0.907029 0.556576 0.722234 0.472726 0.563484 
0.496558 0.607517 0.569632 0.595292 0.594762 0.704006 0.639489 0.730327 0.653933 
0.736695 0.660572 0.732373 0.648841 0.721942 0.67078 0.73041 0.557888 0.343147 
0.239714 0.226148 0.574135 0.440751 0.453646 0.501923 0.510404 0.532149 0.595434 
0.603551 0.597441 0.328011 0.358538 0.467467 0.626659 0.709316 0.660893 0.731795 
0.667599 0.748681 0.710357 0.720494 0.69916 0.781604 0.710709 0.777359 0.692819 
0.708308 0.696593 0.681725 0.668597 0.708665 0.659559 0.553295 0.372529 0.305191 
0.309027 0.583605 0.571457 0.57599 0.556405 0.53519 0.520018 0.514387 0.514641 
0.604654 0.126328 0.139976 0.218328 0.41425 0.524733 0.536589 0.564468 0.461736 
0.488696 0.559255 0.566401 0.568873 0.574776 0.596717 0.592728 0.593899 0.195224 
0.49937 0.267185 0.448206 0.343141 0.520152 0.338821 0.472077 0.593505 0.523252 
0.521987 0.651001 1.04034 1.14768 0.665385 0.455559 0.526394 0.62531 1.01468 
0.716543 0.608802 0.603151 0.653325 0.637685 0.758923 0.193065 0.146619 0.237761 
0.310682 0.225043 0.340454 0.416886 0.320714 0.140087 0.34425 0.20674 0.607687 
0.466563 0.531695 0.570238 0.646983 0.859567 0.961004 0.409187 0.440903 0.31052 
0.39237 0.300142 0.250981 0.400175 0.503307 0.229349 0.273945 0.866239 0.603344 
0.509577 0.463935 0.5829 0.664411 0.626773 0.954989 0.855961 0.320835 0.337827 
0.378002 0.499704 0.411467 0.600167 0.701899 0.477388 0.405458 0.495153 0.445296 
0.536372 0.498277 0.701298 0.871093 0.61195 0.654375 0.606103 0.511894 0.427596 
0.400448 0.351211 0.356797 0.511398 0.506275 0.433235 0.466092 0.308102 0.385343 
0.362809 0.443137 0.481969 0.4705 0.477015 0.549046 0.541865 0.144992 0.248681 
0.238351 0.427001 0.373491 0.662784 0.552624 0.823612 0.79888 0.526016 0.544502 
0.581701 0.634202 0.674092 0.778515 0.926935 0.952597 0.962435 0.582311 0.548079 
0.592738 0.565089 0.586715 0.538979 0.577695 0.412762 0.688674 0.800216 0.474041 
0.577718 0.331781 0.448418 0.242737 0.316126 0.937846 0.885512 0.74693 0.616244 
0.567169 0.511664 0.484673 0.467113 0.571385 0.602788 0.584234 0.659134 0.639044 
0.887093 0.755407 0.932772 0.915357 0.323727 0.39332 0.432711 0.538195 0.566143 
0.64402 0.738487 0.830113 0.836078 0.452866 0.588665 0.561007 0.624084 0.584339 
0.597971 0.606849 0.62626 0.647215 0.906028 0.928002 0.691708 0.776772 0.629749 
0.668577 0.601599 0.607916 0.832264 0.742042 0.647121 0.567473 0.541728 0.444207 
0.409379 0.365258 0.605346 0.651188 0.639309 0.617455 0.57291 0.623051 0.543783 
0.595805 0.419493 0.609634 0.592932 0.520668 0.664456 0.617185 0.716739 0.694835 
0.672257 0.634392 0.748824 0.736833 0.778972 0.764632 0.774562 0.839051 0.842865 
0.801181 0.921903 0.884168 0.981028 0.937469 0.959939 0.963714 0.959593 0.968345 
0.532857 0.532738 0.540209 0.56508 0.618937 0.646695 0.6425 0.673078 0.715689 
0.748475 0.820201 0.901831 0.925431 0.95263 0.959839 0.965774 0.968685 0.944194 
0.808182 0.949936 0.959424 0.858467 0.913356 0.725168 0.604916 0.790097 0.815805 
0.698868 0.734105 0.608049 0.495212 0.658486 0.674555 0.633294 0.646219 0.555929 
0.413379 0.607429 0.625261 0.568713 0.585445 0.954111 0.941478 0.914641 0.870758 
0.837373 0.79819 0.727141 0.673814 0.632504 0.592024 0.597317 0.571318 0.547102 
0.5076 0.487625 0.473447 0.569304 0.588075 0.574209 0.60333 0.590119 0.628625 
0.621203 0.690166 0.658023 0.782778 0.710968 0.882798 0.860837 0.920262 0.911111 
0.928842 0.922683 0.585025 0.467878 0.586661 0.593655 0.585394 0.650715 0.682335 
0.568437 0.691644 0.700866 0.664366 0.71383 0.732588 0.663002 0.753012 0.797362 
0.755827 0.842052 0.88073 0.841872 0.916717 0.925008 0.933822 0.921098 0.906978 
0.888619 0.928705 0.926149 0.904537 0.922087 0.798587 0.874201 0.716945 0.734116 
0.648665 0.689289 0.660316 0.643152 0.593131 0.619367 0.596887 0.592775 0.91311 
0.923395 0.927643 0.917097 0.885402 0.843432 0.847888 0.807108 0.760035 0.760882 
0.739764 0.66771 0.723551 0.713403 0.673609 0.703968 0.688615 0.572107 0.674473 
0.633228 0.601877 0.604241 0.589867 0.44378 0.584821 0.574885 0.595354 0.645493 
0.700124 0.719132 0.696864 0.722363 0.753216 0.805837 0.847794 0.897771 0.928632 
0.959201 0.965182 0.970575 0.965234 0.955384 0.938942 0.91232 0.869875 0.820219 
0.785779 0.740689 0.703684 0.675249 0.643197 0.647765 0.635856 0.621605 0.577919 
0.548873 0.530963 0.573939 0.577137 0.580421 0.607497 0.652531 0.672968 0.664322 
0.6924 0.712595 0.746241 0.8057 0.852323 0.883012 0.919559 0.924101 0.922934 
0.920189 0.919976 0.925923 0.913893 0.888591 0.86359 0.822085 0.763417 0.731066 
0.716689 0.668652 0.682639 0.691082 0.662834 0.600228 0.587596 0.589814 1.04843 
1.10477 1.05782 1.11488 
