ITEM: TIMESTEP
45030000
ITEM: NUMBER OF ATOMS
24905
ITEM: BOX BOUNDS pp pp ff
0 64.18
0 64.18
-32.09 128.36
ITEM: ATOMS id type xs ys zs
24 1 0.00489308 0.00542153 0.176422
6284 1 0.0464195 0.00349743 0.175688
6108 1 0.195737 0.54977 0.173884
6347 1 0.189093 0.503026 0.179687
6110 1 0.241098 0.505318 0.176453
6151 1 0.23902 0.553738 0.176384
6128 1 0.251699 0.593176 0.175619
6146 1 0.203969 0.600789 0.175321
6197 1 0.408537 0.758886 0.175669
18402 1 0.456019 0.75987 0.177239
18422 1 0.489517 0.798935 0.1737
18403 1 0.498987 0.756559 0.173724
6274 1 0.398409 0.847841 0.173734
6298 1 0.350453 0.846222 0.174081
6417 1 0.401678 0.804611 0.176664
6219 1 0.447344 0.800996 0.177338
6259 1 0.450001 0.846577 0.176998
1 1 0.0528004 0.861057 0.176054
6277 1 0.399313 0.891348 0.17512
15 1 0.352182 0.892501 0.173214
6263 1 0.0487215 0.90345 0.175832
5 1 0.0527549 0.949037 0.175946
6262 1 0.100928 0.907633 0.174781
6270 1 0.144176 0.91201 0.175635
6254 1 0.295525 0.908507 0.175285
6269 1 0.0958319 0.950586 0.174702
6285 1 0.0993659 0.995257 0.175192
6251 1 0.14241 0.957054 0.176085
6292 1 0.141953 0.998762 0.177378
3 1 0.0248132 0.0354684 0.184818
205 1 0.0444779 0.0042635 0.192428
28 1 0.0714166 0.0289693 0.183387
6267 1 0.0970548 0.00695297 0.19393
6286 1 0.117134 0.0290811 0.18344
247 1 0.147079 0.0469417 0.196167
6288 1 0.146843 0.00426529 0.194692
10 1 0.1775 0.0200836 0.185642
229 1 0.196258 0.048073 0.195534
7 1 0.228302 0.0242377 0.186088
6293 1 0.274582 0.0234054 0.18584
33 1 0.320812 0.0227721 0.185131
12221 1 0.373357 0.0226849 0.184141
18 1 0.424831 0.0281273 0.185036
219 1 0.448896 0.00291609 0.1953
18685 1 0.499578 0.0051258 0.196483
12403 1 0.554842 0.0108287 0.192715
12206 1 0.602551 0.0063718 0.195153
18466 1 0.651899 0.0137125 0.195734
12207 1 0.698316 0.00527776 0.193886
12211 1 0.744431 0.00845956 0.194127
18491 1 0.800808 0.00553487 0.19454
12215 1 0.8452 0.00210713 0.194983
12235 1 0.897766 0.00101327 0.193648
2 1 0.93058 0.0297684 0.184201
12239 1 0.976181 0.0265857 0.185685
203 1 0.998663 0.00509159 0.195162
43 1 0.0285037 0.0845524 0.184832
225 1 0.0514692 0.0556038 0.194334
25 1 0.0773567 0.0820069 0.186558
6 1 0.09549 0.0509701 0.19571
49 1 0.126698 0.0738831 0.187302
8 1 0.171704 0.073252 0.188093
29 1 0.224311 0.0788344 0.187752
30 1 0.250136 0.052933 0.195705
32 1 0.267609 0.0755119 0.184352
35 1 0.293463 0.0552435 0.196152
55 1 0.346478 0.0507124 0.195174
38 1 0.401497 0.0522279 0.195268
19 1 0.454352 0.0571521 0.196846
40 1 0.4523 0.0988658 0.196105
37 1 0.548336 0.0578536 0.194658
59 1 0.503101 0.0550413 0.195382
12247 1 0.596059 0.059449 0.195403
12227 1 0.646782 0.061549 0.196662
12208 1 0.697453 0.0583562 0.193558
12212 1 0.748924 0.056162 0.195915
12233 1 0.796561 0.0556098 0.194156
12237 1 0.848637 0.0536783 0.195826
12255 1 0.850229 0.0985217 0.195773
12238 1 0.90096 0.0512843 0.193182
12217 1 0.928268 0.0766275 0.186804
12220 1 0.952224 0.0507623 0.195151
23 1 0.972601 0.0790135 0.18626
223 1 0.996694 0.0528344 0.195353
22 1 0.00217897 0.101491 0.196909
65 1 0.0241964 0.128917 0.185905
245 1 0.0492143 0.10529 0.196946
67 1 0.0738228 0.127681 0.185974
249 1 0.148213 0.106605 0.194799
45 1 0.10038 0.10816 0.195912
26 1 0.116164 0.13648 0.186401
47 1 0.156706 0.145636 0.194592
69 1 0.201709 0.112157 0.19338
50 1 0.251061 0.106355 0.194515
71 1 0.25193 0.149486 0.195277
53 1 0.300896 0.104935 0.194369
73 1 0.351215 0.106563 0.195062
56 1 0.401249 0.106096 0.196969
12265 1 0.506582 0.109682 0.196339
12223 1 0.550279 0.111679 0.19514
12225 1 0.606347 0.105075 0.196085
12249 1 0.651402 0.103434 0.196756
12469 1 0.696222 0.104142 0.196011
12252 1 0.747088 0.101398 0.198172
12272 1 0.793087 0.148181 0.197171
12253 1 0.803423 0.101013 0.196417
12277 1 0.844231 0.148629 0.19714
12297 1 0.897669 0.148367 0.193885
61 1 0.897782 0.100921 0.195025
41 1 0.926239 0.124145 0.184712
12240 1 0.947709 0.105704 0.196577
12258 1 0.945723 0.14954 0.196125
21 1 0.979242 0.125412 0.185831
83 1 0.0458938 0.197994 0.193949
63 1 0.0523428 0.151729 0.194478
87 1 0.0961107 0.160937 0.196151
85 1 0.13449 0.18277 0.199979
68 1 0.201242 0.151452 0.194861
72 1 0.248692 0.19844 0.193108
89 1 0.297315 0.150449 0.1938
77 1 0.397231 0.15732 0.194611
97 1 0.350616 0.158781 0.196291
12261 1 0.455556 0.154835 0.195033
12226 1 0.50152 0.155676 0.194706
12262 1 0.54817 0.154337 0.196343
12287 1 0.547564 0.197227 0.196959
12267 1 0.597657 0.153255 0.197176
12271 1 0.69259 0.153216 0.197326
12285 1 0.651149 0.155813 0.197249
12269 1 0.655089 0.199154 0.196176
12274 1 0.797493 0.197424 0.194843
12333 1 0.846508 0.198044 0.195928
12279 1 0.998817 0.196751 0.196369
12280 1 0.99834 0.154588 0.196949
103 1 0.0463113 0.248644 0.194623
86 1 0.0964704 0.204179 0.192498
88 1 0.202459 0.209173 0.194843
93 1 0.300875 0.207389 0.19557
115 1 0.348603 0.202341 0.196201
75 1 0.40166 0.206322 0.194356
12242 1 0.451517 0.201809 0.19627
12282 1 0.503279 0.203295 0.197295
12268 1 0.598272 0.201025 0.196219
12305 1 0.550113 0.247516 0.196078
12325 1 0.603988 0.246084 0.196158
12288 1 0.651766 0.24909 0.196003
12289 1 0.703662 0.200368 0.194498
12290 1 0.752134 0.209245 0.192426
12314 1 0.793208 0.248564 0.196532
12313 1 0.895013 0.20301 0.196722
12299 1 0.949169 0.202769 0.195361
124 1 0.048054 0.299266 0.195413
105 1 0.0931754 0.254402 0.194597
133 1 0.198055 0.255825 0.198629
128 1 0.207187 0.299888 0.192821
91 1 0.255765 0.256224 0.193752
113 1 0.299262 0.256702 0.197667
99 1 0.34607 0.251543 0.196022
137 1 0.391202 0.257502 0.196735
119 1 0.450611 0.254983 0.195626
12301 1 0.500957 0.251816 0.197166
12308 1 0.69073 0.251276 0.193279
12327 1 0.699709 0.298643 0.194653
12311 1 0.745025 0.255673 0.193876
12275 1 0.845419 0.250469 0.197146
12295 1 0.895561 0.256031 0.195301
12317 1 0.853364 0.298425 0.195444
12312 1 0.897192 0.299893 0.195427
101 1 0.944941 0.250792 0.197342
121 1 0.945919 0.29823 0.196353
81 1 0.995415 0.25177 0.194195
106 1 0.096893 0.300354 0.197614
161 1 0.105982 0.349701 0.196564
148 1 0.150926 0.349979 0.192143
130 1 0.25203 0.303039 0.193589
111 1 0.300239 0.304373 0.194318
135 1 0.300313 0.348678 0.195655
95 1 0.351832 0.305544 0.193484
12281 1 0.39477 0.304774 0.19585
12341 1 0.448727 0.301818 0.198245
12321 1 0.443558 0.345924 0.195357
157 1 0.498967 0.302993 0.196586
12322 1 0.474697 0.331328 0.186604
12523 1 0.546031 0.314053 0.194395
12326 1 0.650063 0.308097 0.195703
12549 1 0.748877 0.305315 0.194581
12373 1 0.800666 0.30128 0.193885
12338 1 0.935168 0.349164 0.194612
12339 1 0.99058 0.302066 0.196826
12360 1 0.998175 0.34827 0.19617
162 1 0.000877766 0.396868 0.192301
143 1 0.0464135 0.351022 0.195056
142 1 0.0490794 0.394145 0.193846
6105 1 0.10517 0.394049 0.194459
145 1 0.155008 0.393391 0.193381
171 1 0.200414 0.351976 0.194102
129 1 0.246634 0.350119 0.192218
173 1 0.203078 0.394986 0.193896
131 1 0.275662 0.376859 0.183398
117 1 0.344123 0.358874 0.195412
136 1 0.394406 0.351208 0.193376
179 1 0.447938 0.396658 0.195165
12302 1 0.497423 0.353959 0.195734
12381 1 0.470615 0.372857 0.183935
12363 1 0.489246 0.399646 0.196226
12367 1 0.519598 0.385424 0.187865
12324 1 0.548051 0.354426 0.196502
12345 1 0.59421 0.350098 0.19663
12347 1 0.601132 0.397707 0.197291
12587 1 0.650014 0.394932 0.196215
12353 1 0.746561 0.351159 0.192286
12330 1 0.700801 0.355289 0.194135
12334 1 0.803365 0.352909 0.194808
12335 1 0.848847 0.355186 0.194586
12357 1 0.890173 0.351057 0.1954
12378 1 0.896205 0.39564 0.194424
12355 1 0.855353 0.398619 0.193953
12359 1 0.957365 0.376466 0.1847
185 1 0.0560953 0.449617 0.193804
151 1 0.133995 0.42251 0.184465
183 1 0.104449 0.44837 0.196998
168 1 0.14938 0.447184 0.195928
126 1 0.175633 0.423455 0.185563
347 1 0.219528 0.433033 0.185389
155 1 0.249368 0.401564 0.193817
193 1 0.269589 0.424707 0.183502
154 1 0.297659 0.404559 0.19567
174 1 0.322156 0.425083 0.18604
195 1 0.352316 0.402968 0.194957
177 1 0.397071 0.4004 0.195013
176 1 0.397827 0.448857 0.196785
12361 1 0.451874 0.448971 0.193097
12303 1 0.549416 0.406012 0.195563
18309 1 0.674442 0.429572 0.188632
12368 1 0.703776 0.406054 0.195066
12369 1 0.750353 0.404162 0.197714
12351 1 0.794063 0.401004 0.194972
12399 1 0.941689 0.40503 0.194894
6103 1 0.0547148 0.495832 0.195766
6148 1 0.0968302 0.494009 0.196709
169 1 0.125778 0.470117 0.185966
188 1 0.179111 0.468546 0.183707
186 1 0.157947 0.49773 0.191968
6308 1 0.201035 0.454605 0.197449
189 1 0.221762 0.475929 0.185212
165 1 0.248917 0.45436 0.195961
6113 1 0.297262 0.452744 0.19656
6111 1 0.270681 0.477127 0.184777
194 1 0.347271 0.450876 0.195286
192 1 0.320486 0.478581 0.188052
196 1 0.373771 0.476065 0.18729
6117 1 0.414107 0.476179 0.186578
178 1 0.496482 0.458716 0.193556
12383 1 0.547197 0.459702 0.194826
12387 1 0.649508 0.457363 0.195915
12390 1 0.703315 0.458921 0.195446
12371 1 0.745686 0.455342 0.194795
12395 1 0.756074 0.498016 0.195477
12393 1 0.795219 0.450597 0.196478
12376 1 0.847803 0.455044 0.195951
12397 1 0.896397 0.45579 0.197018
18317 1 0.946459 0.455599 0.19372
181 1 0.996873 0.453327 0.195338
6101 1 0.00185221 0.502395 0.196416
6109 1 0.126776 0.512496 0.183132
187 1 0.166782 0.534939 0.185989
6127 1 0.195328 0.547767 0.196395
6123 1 0.196429 0.504206 0.197591
6147 1 0.21784 0.527318 0.186642
6130 1 0.24877 0.549879 0.195167
6327 1 0.246761 0.502627 0.195366
6114 1 0.295879 0.504444 0.197701
6131 1 0.273202 0.524342 0.186057
6133 1 0.299211 0.548822 0.196826
191 1 0.322653 0.523633 0.188388
6112 1 0.349989 0.500664 0.196258
6115 1 0.373792 0.529253 0.187367
6116 1 0.397846 0.502255 0.197508
6138 1 0.422282 0.526415 0.186014
199 1 0.451801 0.503955 0.196287
6139 1 0.473163 0.535092 0.18637
18301 1 0.503475 0.508687 0.195624
12384 1 0.553702 0.508698 0.196795
18305 1 0.596091 0.503223 0.197853
18323 1 0.597131 0.549715 0.197378
18307 1 0.651128 0.50313 0.196395
12392 1 0.699142 0.501994 0.197405
18333 1 0.752165 0.548036 0.19395
18535 1 0.802379 0.507486 0.195702
18315 1 0.84856 0.504163 0.196718
18337 1 0.898297 0.503947 0.196804
18336 1 0.90499 0.545683 0.196437
18339 1 0.954591 0.501887 0.193965
6325 1 0.0489204 0.555882 0.19701
6121 1 0.00529871 0.55276 0.196793
167 1 0.0971831 0.550259 0.191871
6345 1 0.134671 0.564437 0.189625
6183 1 0.17252 0.576341 0.186294
6150 1 0.218112 0.574842 0.187082
6171 1 0.27892 0.573181 0.185175
6153 1 0.326142 0.5778 0.185884
6135 1 0.346418 0.551133 0.197035
6155 1 0.372881 0.578796 0.187029
6136 1 0.398728 0.553586 0.196327
6137 1 0.428252 0.578893 0.186946
6160 1 0.450733 0.554695 0.19769
6179 1 0.472862 0.576894 0.185947
6120 1 0.50514 0.551068 0.196737
18303 1 0.547084 0.551441 0.197519
18326 1 0.643568 0.551666 0.19792
18327 1 0.703058 0.553167 0.19591
18353 1 0.797524 0.555194 0.195584
18335 1 0.85502 0.555564 0.194693
18338 1 0.955578 0.551389 0.194494
6163 1 0.0431317 0.64712 0.193822
6122 1 0.00128242 0.647756 0.196299
6104 1 0.0509166 0.607365 0.19376
6144 1 0.104148 0.60131 0.191483
6143 1 0.101846 0.645304 0.195049
6185 1 0.146181 0.604832 0.192128
6165 1 0.197084 0.603675 0.194368
6129 1 0.187015 0.637117 0.182825
6149 1 0.227179 0.63185 0.185458
6372 1 0.250316 0.604439 0.195793
6175 1 0.276005 0.626523 0.184472
6152 1 0.299045 0.606367 0.195527
6134 1 0.347476 0.601231 0.196374
6170 1 0.325768 0.627708 0.185126
6154 1 0.372132 0.625389 0.18828
6156 1 0.399555 0.603602 0.197812
6177 1 0.429565 0.622138 0.18592
6159 1 0.456334 0.601828 0.197031
6178 1 0.474965 0.630573 0.187036
18341 1 0.500579 0.601299 0.197328
18347 1 0.598656 0.604083 0.198097
18345 1 0.552919 0.60329 0.197312
18348 1 0.647838 0.601477 0.196047
18330 1 0.696986 0.604273 0.194644
18351 1 0.747835 0.605261 0.19497
18334 1 0.799972 0.600525 0.196171
18414 1 0.800081 0.649275 0.195932
18354 1 0.848715 0.647995 0.195536
18557 1 0.857514 0.603459 0.196324
18415 1 0.90143 0.605973 0.197439
18340 1 0.946219 0.64839 0.194891
18377 1 0.953658 0.602561 0.193972
18359 1 0.999988 0.604957 0.197894
18399 1 0.000533778 0.6992 0.196669
6164 1 0.0757338 0.678161 0.1842
6166 1 0.149545 0.65591 0.192138
6205 1 0.121879 0.682509 0.18378
6168 1 0.194868 0.660132 0.197174
6189 1 0.172566 0.683029 0.184488
6187 1 0.222222 0.675868 0.184252
6391 1 0.249486 0.69916 0.193326
6371 1 0.255323 0.653209 0.193448
6169 1 0.27656 0.679375 0.183141
6211 1 0.298523 0.655873 0.193621
6192 1 0.327103 0.675836 0.185283
6176 1 0.35085 0.653665 0.195613
6172 1 0.376653 0.676701 0.185684
6555 1 0.403033 0.653521 0.196399
6217 1 0.429583 0.677799 0.185029
6356 1 0.45156 0.652184 0.196958
6157 1 0.477419 0.680117 0.188322
18401 1 0.519825 0.678555 0.187075
18342 1 0.500553 0.651305 0.198247
18325 1 0.550649 0.654414 0.19615
18382 1 0.568082 0.685301 0.187639
18387 1 0.598683 0.658789 0.19534
18369 1 0.646393 0.656709 0.194237
18328 1 0.703302 0.653998 0.194943
18367 1 0.727587 0.681399 0.186326
18371 1 0.751676 0.653532 0.196481
18412 1 0.774466 0.679961 0.186206
18393 1 0.798182 0.698848 0.198073
18373 1 0.820296 0.679303 0.187272
18357 1 0.892322 0.65813 0.195589
18378 1 0.893256 0.698607 0.195695
6161 1 0.948853 0.695528 0.195482
6181 1 0.0495452 0.705674 0.195599
6208 1 0.0704034 0.727124 0.184872
6184 1 0.0944308 0.703536 0.195136
6407 1 0.120288 0.726017 0.184825
6186 1 0.140973 0.702355 0.195604
6190 1 0.166479 0.729546 0.186913
6188 1 0.191815 0.70345 0.197745
6191 1 0.220592 0.724136 0.187448
6411 1 0.250751 0.746381 0.195337
6213 1 0.277569 0.722418 0.185759
6393 1 0.302914 0.700673 0.196102
6194 1 0.323055 0.72466 0.185713
6173 1 0.35274 0.703235 0.194917
6214 1 0.383046 0.727187 0.185248
6195 1 0.404952 0.70172 0.196838
6198 1 0.433073 0.73125 0.187113
6237 1 0.45259 0.701334 0.196965
6239 1 0.475599 0.727542 0.186776
6216 1 0.524013 0.724105 0.183399
18381 1 0.544917 0.709191 0.196725
6220 1 0.505784 0.748914 0.194337
6419 1 0.501408 0.701332 0.198453
18425 1 0.571531 0.726035 0.184331
6200 1 0.605965 0.708245 0.192617
18363 1 0.653726 0.707333 0.192729
18311 1 0.701204 0.702314 0.194972
18389 1 0.727223 0.727657 0.186386
18407 1 0.700206 0.748165 0.194195
18391 1 0.752998 0.704441 0.197781
18435 1 0.781888 0.72625 0.186868
18433 1 0.823653 0.728168 0.187383
18374 1 0.846714 0.701981 0.197829
18418 1 0.873241 0.733969 0.188249
18397 1 0.919683 0.728637 0.185939
6141 1 0.973814 0.723091 0.1882
6145 1 0.0471992 0.755392 0.192958
6203 1 0.0180298 0.779808 0.1836
6206 1 0.0712367 0.780789 0.184744
6425 1 0.094322 0.752571 0.193989
6231 1 0.139158 0.752217 0.19606
6207 1 0.124001 0.777977 0.184946
6233 1 0.172619 0.776561 0.187247
6409 1 0.200765 0.751618 0.19594
6167 1 0.224259 0.770504 0.184822
6413 1 0.298061 0.751343 0.195122
6236 1 0.274174 0.782039 0.18664
6235 1 0.32471 0.776951 0.184185
6433 1 0.349952 0.7505 0.193869
6256 1 0.372565 0.7743 0.183536
6215 1 0.40111 0.751798 0.194762
6457 1 0.425537 0.780342 0.18832
6435 1 0.455519 0.756295 0.196478
6199 1 0.48314 0.775217 0.186903
18383 1 0.528281 0.784885 0.184694
18365 1 0.553889 0.75635 0.195676
18385 1 0.575293 0.783637 0.186267
18405 1 0.602781 0.75226 0.193957
18408 1 0.650842 0.753545 0.19572
18411 1 0.749075 0.758494 0.195363
18434 1 0.798457 0.796697 0.195365
18419 1 0.847505 0.752607 0.198517
18395 1 0.800756 0.757702 0.194823
18437 1 0.830587 0.775592 0.186355
18436 1 0.849192 0.798412 0.197356
18455 1 0.878585 0.778208 0.188202
18639 1 0.922842 0.778405 0.187906
18398 1 0.946061 0.755923 0.196024
6201 1 0.997925 0.758892 0.19475
6241 1 0.969827 0.78165 0.186526
6243 1 0.000160589 0.804288 0.193584
6242 1 0.0212036 0.833158 0.183549
6221 1 0.0432567 0.804085 0.193603
6209 1 0.0979222 0.803355 0.194948
6225 1 0.0704071 0.83118 0.186521
6427 1 0.144632 0.804696 0.195566
6229 1 0.124797 0.831386 0.185292
6210 1 0.171222 0.824681 0.186032
6429 1 0.200834 0.801984 0.195864
6230 1 0.24544 0.803091 0.19536
6431 1 0.226329 0.829152 0.184259
6232 1 0.276052 0.82711 0.186202
6234 1 0.303483 0.800049 0.195634
6253 1 0.323043 0.826091 0.185228
6434 1 0.346957 0.80161 0.195481
6255 1 0.372246 0.823905 0.187131
6238 1 0.400542 0.803747 0.197185
6275 1 0.423086 0.828071 0.186291
6459 1 0.456133 0.803526 0.194296
6260 1 0.480776 0.827523 0.184796
6240 1 0.526 0.823702 0.183085
6257 1 0.507102 0.806083 0.196513
18421 1 0.551253 0.806039 0.196277
18463 1 0.578241 0.828877 0.185357
18424 1 0.608469 0.803389 0.195719
18447 1 0.624547 0.834155 0.183966
18427 1 0.649749 0.801549 0.194543
18449 1 0.676289 0.829083 0.185429
18409 1 0.700026 0.801612 0.193928
18452 1 0.749091 0.802222 0.195074
18453 1 0.776435 0.82623 0.186609
18454 1 0.798529 0.849705 0.198344
18655 1 0.82391 0.825536 0.188261
18457 1 0.881788 0.824729 0.186625
18456 1 0.852817 0.848841 0.194913
18636 1 0.90409 0.806337 0.198793
18479 1 0.926202 0.834278 0.187576
18439 1 0.949517 0.806775 0.197023
18459 1 0.975567 0.830684 0.184876
6223 1 0.045184 0.856874 0.192881
18497 1 0.0174813 0.882872 0.183307
6245 1 0.0782266 0.877987 0.185955
6227 1 0.100481 0.854536 0.195549
6228 1 0.12561 0.875352 0.183237
27 1 0.144762 0.853986 0.195993
6248 1 0.146388 0.899592 0.195802
6193 1 0.192709 0.854482 0.195382
6249 1 0.168691 0.879766 0.183003
6451 1 0.244666 0.85416 0.19461
6212 1 0.218024 0.8789 0.183844
6472 1 0.24633 0.897778 0.194404
6453 1 0.299347 0.852909 0.196625
6252 1 0.276248 0.87173 0.185035
6454 1 0.347507 0.851073 0.19562
6452 1 0.324828 0.875793 0.18464
6475 1 0.399618 0.850412 0.196599
6493 1 0.375961 0.874154 0.186487
6276 1 0.398626 0.898673 0.196596
6279 1 0.425459 0.871182 0.18521
6258 1 0.455528 0.851037 0.194879
6280 1 0.477169 0.878884 0.184118
18442 1 0.504633 0.855346 0.194674
6218 1 0.529842 0.881298 0.186058
18461 1 0.554391 0.853497 0.19657
18485 1 0.571238 0.877461 0.183191
39 1 0.557721 0.899795 0.195832
18444 1 0.601802 0.850499 0.195544
12203 1 0.63047 0.875178 0.183106
18464 1 0.605015 0.899369 0.194308
18465 1 0.653136 0.856013 0.195656
18443 1 0.678146 0.878266 0.186482
18467 1 0.705723 0.853253 0.194562
18653 1 0.749902 0.851574 0.195352
18473 1 0.779957 0.877596 0.187021
18475 1 0.82029 0.878572 0.188397
18417 1 0.879769 0.869253 0.185096
18657 1 0.89729 0.85388 0.199156
18495 1 0.893391 0.898065 0.195727
18478 1 0.923863 0.875539 0.188776
6461 1 0.997774 0.854948 0.195631
18460 1 0.955359 0.855466 0.196374
6261 1 0.967639 0.8816 0.184456
6462 1 0.995469 0.898359 0.197435
6244 1 0.0436585 0.902114 0.194176
6283 1 0.0209661 0.928618 0.184287
6483 1 0.00059694 0.947236 0.196123
6265 1 0.0714821 0.923579 0.186621
6247 1 0.0988276 0.903933 0.196967
6271 1 0.123439 0.927258 0.187918
6250 1 0.171354 0.930073 0.185671
6291 1 0.192771 0.900429 0.195058
6473 1 0.223473 0.927262 0.185339
6491 1 0.248928 0.94656 0.195055
9 1 0.272702 0.932272 0.183201
6272 1 0.29862 0.902988 0.194123
6273 1 0.322735 0.926955 0.18425
6474 1 0.345918 0.901348 0.194193
6297 1 0.377453 0.92254 0.185183
6299 1 0.427499 0.915351 0.187208
6296 1 0.403143 0.947326 0.194416
6278 1 0.457626 0.900357 0.196168
12401 1 0.480604 0.931522 0.185316
6499 1 0.503488 0.90461 0.194673
18441 1 0.531234 0.930921 0.187059
18484 1 0.580987 0.928429 0.186945
18487 1 0.626418 0.928432 0.185888
18450 1 0.651006 0.904436 0.194906
18488 1 0.674184 0.930197 0.184703
18489 1 0.704965 0.904565 0.195209
18471 1 0.754356 0.904878 0.193915
18476 1 0.796988 0.908722 0.195674
18477 1 0.851658 0.906631 0.196098
18499 1 0.923983 0.920046 0.186618
18500 1 0.948363 0.948495 0.194887
18480 1 0.951556 0.902567 0.19664
6281 1 0.975087 0.922274 0.186073
6264 1 0.045392 0.951138 0.194918
4 1 0.0240867 0.973286 0.18353
6246 1 0.0693046 0.976146 0.185746
6266 1 0.0937574 0.950237 0.195714
6268 1 0.148488 0.953619 0.196191
6287 1 0.120119 0.975764 0.18789
6290 1 0.199147 0.952274 0.19486
31 1 0.173313 0.976753 0.185097
51 1 0.225652 0.974819 0.183393
11 1 0.2034 0.999647 0.195896
6295 1 0.297722 0.9511 0.194169
211 1 0.250085 0.995311 0.194618
12 1 0.298833 0.993358 0.193882
6289 1 0.274979 0.978394 0.181687
34 1 0.348246 0.99798 0.192576
13 1 0.320248 0.97293 0.182007
6294 1 0.345275 0.953991 0.19364
16 1 0.398748 0.999694 0.194672
14 1 0.375112 0.97273 0.184984
18481 1 0.422481 0.976171 0.186182
6300 1 0.4523 0.952255 0.193937
12201 1 0.505677 0.952202 0.196323
18482 1 0.557259 0.953729 0.195845
12204 1 0.60347 0.959737 0.194595
12209 1 0.629668 0.986971 0.18713
12205 1 0.650892 0.955088 0.195456
18687 1 0.675237 0.978942 0.186547
18469 1 0.749337 0.958293 0.19576
12210 1 0.701044 0.953038 0.195531
18472 1 0.804942 0.953596 0.19595
18496 1 0.848285 0.952801 0.19571
12219 1 0.898081 0.952518 0.194849
201 1 0.952652 0.999146 0.192493
6282 1 0.979816 0.973597 0.185471
204 1 0.0245568 0.0283241 0.203959
405 1 0.0480964 0.000443913 0.214313
206 1 0.0738417 0.0284925 0.20448
6486 1 0.0953086 0.00467491 0.215384
207 1 0.122392 0.0234985 0.206217
6488 1 0.147624 0.00289938 0.215575
208 1 0.149638 0.0479705 0.216128
209 1 0.176029 0.0248126 0.205747
409 1 0.19955 0.00251296 0.216827
210 1 0.22634 0.0263106 0.203775
231 1 0.267851 0.0239766 0.203413
212 1 0.292911 0.00730309 0.21476
233 1 0.321539 0.0244373 0.203192
234 1 0.347991 0.0495195 0.213268
235 1 0.374062 0.0256551 0.202497
237 1 0.39823 0.0498789 0.214714
214 1 0.351502 0.00276153 0.213708
216 1 0.405932 0.00173659 0.21315
17 1 0.426548 0.0310211 0.205044
437 1 0.454003 0.0028593 0.213838
239 1 0.475984 0.0298097 0.204281
220 1 0.497729 0.00281968 0.213661
20 1 0.529185 0.0300361 0.203892
12402 1 0.549259 0.00873991 0.214813
12405 1 0.573523 0.0335012 0.20484
12241 1 0.625033 0.0327164 0.205624
18887 1 0.651189 0.00885293 0.214455
12407 1 0.676175 0.0339818 0.205081
12409 1 0.698006 0.0066172 0.214874
12231 1 0.722814 0.0298205 0.20528
12411 1 0.750508 0.00101525 0.215154
12213 1 0.771412 0.0272187 0.204355
12413 1 0.795447 0.00466014 0.215049
12433 1 0.795683 0.0490785 0.21545
12214 1 0.822169 0.0279344 0.205748
12216 1 0.877101 0.0249416 0.203837
12417 1 0.896279 0.000503269 0.216379
12415 1 0.853897 0.00383359 0.214999
12218 1 0.923223 0.0259602 0.203806
12419 1 0.951181 0.00271591 0.215625
202 1 0.974503 0.0262794 0.205852
224 1 0.0272208 0.0771201 0.205702
427 1 0.097233 0.0538024 0.214491
425 1 0.0520419 0.0527511 0.215587
226 1 0.0766033 0.0807094 0.20459
227 1 0.12537 0.0742221 0.205763
66 1 0.174486 0.0746592 0.20533
248 1 0.198874 0.0992474 0.216494
228 1 0.201676 0.0524321 0.21449
230 1 0.24651 0.0544498 0.214195
48 1 0.223005 0.0809789 0.204633
251 1 0.272414 0.0835592 0.204867
232 1 0.29465 0.0519312 0.215377
253 1 0.327348 0.0768018 0.204214
36 1 0.377671 0.0795477 0.20476
79 1 0.425231 0.0768518 0.207266
238 1 0.457208 0.05312 0.214995
12441 1 0.478494 0.0796011 0.206376
12243 1 0.52837 0.0831626 0.204752
12423 1 0.548491 0.0514067 0.214932
12421 1 0.501772 0.0527457 0.214833
12224 1 0.576117 0.0841736 0.20581
12425 1 0.597206 0.0535762 0.216225
12443 1 0.551017 0.0983647 0.216623
12248 1 0.625862 0.0828476 0.207425
12427 1 0.650359 0.0541406 0.216217
12229 1 0.677411 0.0777789 0.206002
12429 1 0.698408 0.051329 0.216452
12449 1 0.693771 0.0998606 0.218715
12431 1 0.745663 0.0544329 0.216029
12230 1 0.722103 0.0773202 0.204773
12232 1 0.775442 0.0778452 0.206445
12453 1 0.79766 0.0994159 0.216315
12234 1 0.823455 0.0738266 0.207013
12435 1 0.854401 0.0542913 0.215108
12236 1 0.877739 0.0734446 0.20374
12437 1 0.897663 0.050241 0.214368
12439 1 0.945529 0.0528238 0.215054
12257 1 0.924802 0.0756594 0.204001
221 1 0.972431 0.0751545 0.206678
423 1 0.998215 0.0522226 0.214704
42 1 0.0263348 0.130234 0.206538
243 1 0.0488347 0.102817 0.216707
241 1 0.00142492 0.100204 0.216145
44 1 0.0768315 0.130856 0.205673
467 1 0.147457 0.101499 0.215458
246 1 0.105636 0.104976 0.215316
46 1 0.127024 0.132476 0.204973
267 1 0.178746 0.126723 0.206146
269 1 0.226442 0.130323 0.207668
250 1 0.247689 0.101903 0.217085
52 1 0.273242 0.125195 0.205762
252 1 0.301911 0.101162 0.214448
54 1 0.325824 0.131352 0.205977
255 1 0.351433 0.102142 0.215164
57 1 0.371073 0.130573 0.205531
257 1 0.399777 0.103307 0.215859
58 1 0.430118 0.128831 0.204853
277 1 0.404038 0.149742 0.214687
259 1 0.451103 0.100842 0.216093
60 1 0.477734 0.126465 0.20544
12245 1 0.524803 0.131336 0.207589
12222 1 0.506362 0.103626 0.216796
12244 1 0.573337 0.12629 0.207699
12445 1 0.598893 0.10358 0.21773
12447 1 0.624945 0.130315 0.208145
12228 1 0.64878 0.102353 0.218746
12250 1 0.673889 0.128147 0.208588
12451 1 0.747629 0.101331 0.217395
12270 1 0.719391 0.123627 0.208732
12273 1 0.77099 0.121784 0.208042
12455 1 0.845582 0.100184 0.215359
12254 1 0.822042 0.125552 0.206935
12456 1 0.846731 0.148226 0.216225
12256 1 0.873525 0.130481 0.206826
12457 1 0.895146 0.100133 0.213628
12259 1 0.920725 0.129661 0.205592
12459 1 0.943663 0.105078 0.215924
12260 1 0.972388 0.133216 0.206388
62 1 0.0280012 0.174535 0.206217
263 1 0.052814 0.151563 0.216052
64 1 0.0714921 0.179538 0.205261
265 1 0.104288 0.157472 0.21384
266 1 0.151105 0.160353 0.215568
287 1 0.175475 0.182012 0.203243
268 1 0.199818 0.154513 0.214331
70 1 0.224307 0.178998 0.204469
271 1 0.257068 0.155123 0.214963
293 1 0.278269 0.181083 0.205058
273 1 0.298414 0.150278 0.216211
74 1 0.327354 0.180787 0.207335
275 1 0.355994 0.160638 0.214785
76 1 0.377479 0.182961 0.204699
78 1 0.422065 0.175632 0.205733
279 1 0.452765 0.151421 0.216417
80 1 0.474756 0.175548 0.20613
12461 1 0.497331 0.151509 0.21614
12463 1 0.525319 0.178749 0.20715
12263 1 0.549914 0.15394 0.21733
12465 1 0.598012 0.153244 0.216563
12264 1 0.573862 0.176437 0.206591
12483 1 0.551096 0.198125 0.217378
12485 1 0.599508 0.199134 0.215779
12467 1 0.649164 0.152401 0.217254
12266 1 0.626591 0.18088 0.206522
12246 1 0.673629 0.177486 0.208142
12491 1 0.695954 0.156355 0.218076
12471 1 0.748624 0.153492 0.216154
12292 1 0.721057 0.18118 0.206681
12473 1 0.794212 0.153531 0.214253
12251 1 0.769827 0.183142 0.205139
12492 1 0.797579 0.198886 0.215602
12475 1 0.823746 0.174952 0.206047
12477 1 0.898334 0.151955 0.217315
12276 1 0.87094 0.17171 0.204738
12479 1 0.942725 0.153926 0.216364
12298 1 0.920034 0.173728 0.205646
12499 1 0.968063 0.175732 0.205292
261 1 0.997966 0.153773 0.216832
283 1 0.0457067 0.20464 0.215139
82 1 0.0220528 0.225344 0.203275
84 1 0.0718464 0.224685 0.206548
285 1 0.105524 0.201064 0.212132
109 1 0.127649 0.231882 0.204971
286 1 0.148938 0.207583 0.215473
307 1 0.173167 0.227312 0.203327
289 1 0.200283 0.201201 0.213669
90 1 0.229804 0.22906 0.202702
291 1 0.248053 0.203614 0.214209
92 1 0.275349 0.227061 0.205114
25156 2 0.302476 0.205885 0.216554
94 1 0.322946 0.226931 0.207555
295 1 0.35492 0.204183 0.217766
96 1 0.371989 0.22888 0.206796
297 1 0.399162 0.202792 0.21522
98 1 0.420137 0.228812 0.204921
299 1 0.447388 0.207722 0.215452
100 1 0.478985 0.226776 0.207445
12283 1 0.527857 0.226747 0.207125
12481 1 0.500827 0.201555 0.217196
12284 1 0.575041 0.223913 0.206699
12286 1 0.628942 0.227085 0.207422
12487 1 0.648465 0.201118 0.217959
12309 1 0.676177 0.225908 0.206842
25088 2 0.740277 0.206766 0.217233
12489 1 0.700133 0.204706 0.218001
12331 1 0.722851 0.230519 0.204585
12291 1 0.76833 0.225788 0.205751
12495 1 0.837521 0.200961 0.218834
12293 1 0.818666 0.225368 0.206076
12516 1 0.844415 0.249688 0.215835
12296 1 0.870676 0.225459 0.207563
12497 1 0.902067 0.200158 0.216829
12278 1 0.947934 0.203977 0.215027
12319 1 0.919771 0.229443 0.205761
281 1 0.998671 0.200887 0.213735
12300 1 0.972555 0.228561 0.205971
102 1 0.0201866 0.275536 0.206087
303 1 0.0464553 0.250066 0.216049
104 1 0.068645 0.274708 0.205588
305 1 0.0966735 0.252293 0.21411
107 1 0.12809 0.273218 0.206643
306 1 0.158182 0.258046 0.21593
108 1 0.168862 0.284995 0.200965
309 1 0.206076 0.257486 0.214919
110 1 0.229023 0.281619 0.205371
311 1 0.250026 0.254181 0.214552
112 1 0.278788 0.282817 0.206597
313 1 0.300307 0.252753 0.215901
114 1 0.325123 0.27848 0.206682
315 1 0.352029 0.255491 0.216213
116 1 0.37227 0.282189 0.206584
317 1 0.396844 0.254267 0.215667
118 1 0.420581 0.277063 0.205882
319 1 0.445543 0.254755 0.213171
120 1 0.474097 0.276721 0.205472
12323 1 0.533471 0.281038 0.202669
12501 1 0.503185 0.25683 0.213719
24980 2 0.531405 0.291772 0.215549
12503 1 0.550298 0.253229 0.215683
12304 1 0.574811 0.274442 0.204386
12505 1 0.600435 0.254927 0.214599
12525 1 0.600336 0.296797 0.216716
12306 1 0.626345 0.275551 0.205238
12509 1 0.698861 0.25382 0.216543
12507 1 0.651766 0.254407 0.216199
12329 1 0.678035 0.277349 0.205917
12511 1 0.749129 0.255512 0.213631
12310 1 0.719825 0.275268 0.204406
12315 1 0.771484 0.277974 0.203152
12294 1 0.792703 0.251184 0.215498
12513 1 0.822029 0.273258 0.206677
12517 1 0.894803 0.25461 0.216499
12316 1 0.869278 0.273618 0.207326
12519 1 0.946257 0.251898 0.215272
12318 1 0.921535 0.277183 0.206924
12320 1 0.970965 0.275872 0.205829
301 1 0.997039 0.250645 0.214685
321 1 0.992585 0.298839 0.216126
323 1 0.0475361 0.300642 0.216647
122 1 0.0177024 0.32698 0.207312
325 1 0.0690996 0.326025 0.20552
304 1 0.102175 0.300021 0.215106
123 1 0.133019 0.317136 0.203355
345 1 0.10059 0.346344 0.213091
327 1 0.154886 0.304334 0.216253
127 1 0.179142 0.327106 0.203534
348 1 0.154582 0.348237 0.215886
329 1 0.201907 0.303593 0.214816
149 1 0.228941 0.324795 0.203283
331 1 0.251382 0.304374 0.215243
132 1 0.276964 0.327983 0.205771
333 1 0.30028 0.303756 0.21745
134 1 0.324446 0.325752 0.20661
335 1 0.346923 0.303974 0.21754
353 1 0.300036 0.349568 0.216673
139 1 0.372126 0.332706 0.203576
337 1 0.397068 0.303496 0.215932
138 1 0.420611 0.324805 0.206302
339 1 0.450947 0.304323 0.216876
140 1 0.475952 0.330036 0.20512
12521 1 0.495579 0.303052 0.217173
12343 1 0.522031 0.330174 0.20678
12307 1 0.57038 0.319606 0.207453
12524 1 0.593035 0.348603 0.215589
12545 1 0.619605 0.325771 0.20568
12547 1 0.648467 0.346141 0.216288
12366 1 0.648617 0.349534 0.200112
12527 1 0.652624 0.304754 0.212387
12328 1 0.682003 0.327026 0.20418
12529 1 0.699233 0.303058 0.217048
12531 1 0.748115 0.304317 0.215688
12375 1 0.721704 0.325934 0.204035
12332 1 0.770886 0.33041 0.20446
12512 1 0.794955 0.303037 0.21236
12535 1 0.84492 0.301548 0.214711
12533 1 0.827512 0.328024 0.202898
12553 1 0.800624 0.34915 0.213154
12537 1 0.898895 0.304882 0.218396
12336 1 0.874234 0.323402 0.205034