# vtk DataFile Version 3.0
vtk output
ASCII
DATASET UNSTRUCTURED_GRID
POINTS 687 float
5 7 10 5 7 10 5 8 11.25 
5 8.25 11 5 8 10 5 7 11.25 
5 7.5 13 5 8 12.5 5 7 10.3125 
5 7 10.625 5 7 10.9375 5 7.38766 11.25 
5 7.64592 11.25 5 7.80052 11.25 5 7.90878 11.25 
5 8.01755 11.158 5 8.07322 11.0732 5 8.15798 11.0176 
5 8.25 10.1644 5 8.25 10.3763 5 8.25 10.5485 
5 8.25 10.6871 5 8.25 10.8026 5 8.25 10.9045 
5 7.74324 10 5 7.41786 10 5 7 11.6875 
5 7 12.125 5 7 12.5625 5 7.30926 13 
5 7.68405 12.9649 5 7.85355 12.8536 5 7.96489 12.684 
5 8 12.3065 5 8 12.1233 5 8 11.9567 
5 8 11.8086 5 8 11.6771 5 8 11.5591 
5 8 11.4509 5 8 11.3489 5 7.93205 11.0425 
5 7.80734 11.0245 5 7.67859 10.99 5 7.51824 10.9746 
5 7.32515 10.9611 5 8.01086 10.2002 5 8.03769 10.3933 
5 8.06323 10.5667 5 8.09469 10.7162 5 8.13242 10.8231 
5 8.14712 10.922 5 7.39469 10.6822 5 7.65901 10.6508 
5 7.8705 10.6089 5 7.93308 10.788 5 7.93412 10.9257 
5 7.7282 10.8379 5 7.82322 10.9294 5 7.54704 10.8316 
5 8.04809 10.9431 5 8.03786 10.8514 5 7.44218 10.3424 
5 7.75573 10.2431 5 7.82664 10.4299 5 7.64261 10.4744 
5 7.91347 11.1466 5 7.79547 11.136 5 7.66053 11.123 
5 7.52214 11.1159 5 7.44943 11.7066 5 7.68075 11.6735 
5 7.84745 11.667 5 7.40022 12.1904 5 7.64784 12.1371 
5 7.83294 12.1302 5 7.85639 12.4875 5 7.71852 12.5169 
5 7.5621 12.5627 5 7.35291 12.6213 5 7.84497 12.3142 
5 7.69057 12.3325 5 7.55096 12.3619 5 7.62604 12.7508 
5 7.76505 12.6851 5 7.86211 12.6189 5 7.49298 12.7907 
5 7.85524 11.8031 5 7.83896 11.9463 5 7.6677 11.8951 
5 7.73456 11.7906 5 7.8089 11.3764 5 7.85382 11.5144 
5 7.6916 11.5296 5 7.67156 11.3874 5 7.56029 11.5433 
5 7.53983 11.3935 5 7.90972 11.3537 5 7.92118 11.4397 
5 24 8 5 24 9 5 19.75 8 
5 16 9 5 16 11 5 11.25 9 
5 11.25 11 5 8.25 9.923 5 0 13 
5 0 10 5 7 13 0 8.1543 11.019 
0 8.07322 11.0732 0 8.01904 11.1543 0 8 11.25 
2.5 8.25 11 2.5 8.15432 11.019 2.5 8.07324 11.0732 
2.5 8.01903 11.1543 2.5 8 11.25 5 8.15434 11.019 
5 8.01902 11.1543 0 7.96192 12.6914 0 7.85355 12.8536 
0 7.6914 12.9619 2.5 8 12.5 2.5 7.96192 12.6914 
2.5 7.85355 12.8536 2.5 7.6914 12.9619 2.5 7.5 13 
5 7.96192 12.6914 5 7.6914 12.9619 0 24 9 
0 24 8 0 16 9 0 16 11 
0 0 10 0 0 13 0 8.25 11 
0 8 12.5 0 7.5 13 0 26 8 
7 26 8 7 24 8 7 19.75 8 
7 16 9 7 11.25 9 7 8 10 
7 0 10 7 -2 10 0 -2 10 
0 0 -11 0 0 -8 0 -2 -8 
5 -2 -8 7 -2 -8 5 0 -8 
5 0 -11 5 8 -11 5 8 -8 
7 8 -8 5 11.25 -11 5 11.25 -9 
7 11.25 -9 5 16 -11 5 16 -9 
7 16 -9 5 19.75 -11 5 19.75 -10 
7 19.75 -10 0 24 -11 0 24 -10 
5 24 -10 5 24 -11 0 26 -10 
5 26 -10 7 26 -10 0 -12 -4 
0 -12 4 0.59691 -12 -3.95521 1.23343 -12 -3.80508 
1.86684 -12 -3.53764 2.4031 -12 -3.19767 2.82877 -12 -2.82808 
3.32044 -12 -2.2304 3.73551 -12 -1.43038 3.93533 -12 -0.71638 
3.99986 -12 0.03336 3.92368 -12 0.77765 3.70276 -12 1.51312 
3.35693 -12 2.17509 2.89656 -12 2.75861 2.35395 -12 3.23403 
1.75721 -12 3.59335 1.15512 -12 3.82958 0.56093 -12 3.96047 
0 36 4 0 -10.743 4 0 -8.8877 4 
0 -6.64749 4 0 -4.45202 4 0 -0.91936 4 
0 4.14518 4 0 6.58748 4 0 9.66416 4 
0 12.0556 4 0 14.4989 4 0 17.6266 4 
0 20.3196 4 0 24.9607 4 0 29.4472 4 
0 31.7102 4 0 33.6144 4 0 35.0694 4 
0 36 -4 0.59993 36 3.95476 1.23847 36 3.80344 
1.87132 36 3.53528 2.4058 36 3.19564 2.82825 36 2.8286 
3.31559 36 2.2376 3.73171 36 1.44025 3.93289 36 0.72964 
3.99999 36 0.00729 3.93339 36 -0.72693 3.7303 36 -1.44391 
3.33354 36 -2.21076 2.85148 36 -2.80519 2.28639 36 -3.28214 
1.63682 36 -3.64977 1.11455 36 -3.84158 0.56461 36 -3.95995 
0 34.661 -4 0 32.5627 -4 0 29.9725 -4 
0 27.9548 -4 0 24.936 -4 0 20.302 -4 
0 17.5542 -4 0 14.3512 -4 0 11.9689 -4 
0 9.52824 -4 0 6.40852 -4 0 3.7104 -4 
0 -0.45165 -4 0 -4.9424 -4 0 -7.504 -4 
0 -9.50153 -4 0 -11.0253 -4 0 2.06879 -4 
0 1.24817 -4 0 0.49795 -4 0 2.22891 4 
0 0.81573 4 0 -0.2654 4 0 21.9979 -4 
0 23.2408 -4 0 24.3368 -4 0 21.9532 4 
0 23.1639 4 0 24.2218 4 0 -2.85941 -4 
0 -1.4497 -4 0 -2.71248 4 0 -1.53432 4 
0 26.5263 -4 0 25.5061 -4 0 27.2927 4 
0 25.7706 4 2.28036 11.9291 -3.28633 1.91748 7.67834 -3.51045 
1.39183 4.80584 -3.75004 3.10004 4.74612 -2.5278 3.99902 4.81728 0.08855 
3.99929 11.9788 0.07526 3.01126 4.7799 2.63293 1.3206 4.94069 3.77571 
1.85925 7.75999 3.54164 2.26005 12.0455 3.30033 4 19.1687 0.00563 
3.05144 19.2212 -2.58625 1.3639 19.1697 -3.76029 1.9216 16.2623 -3.5082 
1.88377 16.3456 3.52866 1.37297 19.2307 3.75698 3.06558 19.3026 2.56948 
0.86913 -9.0538 -3.90444 1.36253 -6.45576 -3.76079 2.03706 -9.19679 -3.44244 
3.04279 -9.69606 -2.59642 3.11128 -6.58598 -2.51395 3.7595 -9.34266 -1.36607 
3.99985 -9.72826 0.03484 3.99986 -6.60452 0.03337 1.03898 -4.23036 -3.86271 
3.0157 -3.54152 -2.62784 2.05455 -4.03413 -3.43203 3.99994 -3.50264 0.0214 
3.74655 -3.86932 -1.40121 1.00023 2.98374 -3.87292 1.99481 2.63411 -3.46709 
2.98987 2.17564 -2.65719 3.74575 2.45304 -1.40334 3.9997 2.15958 0.04896 
3.72707 -9.3715 1.45222 2.9589 -9.71773 2.69164 3.0344 -6.63176 2.60623 
1.83862 -9.28024 3.55239 0.83367 -8.38579 3.91216 1.43719 -6.66098 3.73289 
2.82548 -3.41986 2.83137 3.71431 -3.8546 1.48454 0.80231 -4.99714 3.91871 
1.77296 -4.35265 3.58561 3.70922 2.45004 1.49723 2.93365 2.16411 2.71913 
1.91758 2.60035 3.5104 0.80755 2.87316 3.91763 0.98341 21.0045 -3.87723 
2.96254 21.8143 -2.68763 1.97163 21.3626 -3.48032 4 21.8263 -0.0017 
3.72906 21.5439 -1.4471 0.84747 28.4195 -3.90919 1.34399 31.0003 -3.76745 
1.95439 28.5374 -3.49004 2.87262 27.5375 -2.78353 3.07745 30.8031 -2.55525 
3.72995 27.9379 -1.4448 3.99996 27.5711 0.01726 3.99996 30.7106 0.01826 
1.04168 33.1935 -3.86198 3.05671 33.7806 -2.58002 2.08878 33.3701 -3.4113 
3.99999 33.7855 0.01071 3.75229 33.4182 -1.38575 2.97043 21.8482 2.67891 
3.73117 21.5642 1.44167 0.98998 21.028 3.87556 1.97903 21.3942 3.47613 
3.71189 27.9005 1.4906 2.82811 27.4453 2.82874 3.04412 30.7018 2.59487 
1.93597 28.3735 3.50029 0.86823 28.146 3.90463 1.3057 30.7039 3.78089 
3.02368 33.7595 2.61866 3.74268 33.397 1.41152 0.86284 33.1639 3.90583 
2.02665 33.2848 3.44858 0.53032 -10.5458 -3.96469 1.24149 -10.7951 -3.80246 
1.85972 -10.739 -3.54139 2.44302 -10.9691 -3.16728 3.06586 -11.1071 -2.56914 
3.48459 -10.8306 -1.96409 3.7465 -10.7956 -1.40133 3.93436 -10.9762 -0.72168 
3.99993 -10.9299 0.02358 0.54517 -3.49606 -3.96268 1.86409 -2.61933 -3.53909 
1.12497 -2.64827 -3.83855 2.9571 -2.35459 -2.69361 2.44919 -2.36751 -3.16251 
3.72692 -2.41852 -1.45261 3.39583 -2.27834 -2.11384 3.99998 -2.31918 0.01383 
3.93224 -2.2631 -0.73315 0.48601 2.25066 -3.97036 1.03264 1.61027 -3.86441 
1.64176 1.01027 -3.64755 2.37715 1.13073 -3.21701 2.91683 0.91806 -2.73717 
3.38248 1.09831 -2.13514 3.72047 0.97203 -1.46904 3.93264 1.103 -0.73102 
3.99992 0.92061 0.02526 3.92483 -10.9867 0.77183 3.71071 -10.8422 1.49354 
3.3623 -10.9829 2.16677 2.9046 -10.9215 2.75014 2.34975 -10.9585 3.23708 
1.73632 -10.8351 3.6035 1.08728 -11.0164 3.84939 0.76552 -9.85185 3.92606 
3.70832 -2.40724 1.49945 3.9251 -2.25836 0.77044 2.9009 -2.24119 2.75405 
3.3515 -2.23326 2.18344 2.02728 -2.75573 3.44821 2.48468 -2.05245 3.1347 
0.75188 -3.60736 3.9287 1.14269 -2.47261 3.83331 3.92189 1.10123 0.78663 
3.70058 0.96959 1.51845 3.351 1.09403 2.18422 2.88114 0.91095 2.77471 
2.33539 1.11346 3.24745 1.59742 0.95017 3.66719 0.99331 1.51146 3.87471 
0.55744 1.91642 3.96097 0.49282 21.7568 -3.96953 1.62708 22.9996 -3.65412 
1.03614 22.3695 -3.86347 2.91706 23.0854 -2.73692 2.36484 22.8705 -3.22607 
3.71028 23.0214 -1.4946 3.37648 22.8891 -2.14462 3.9999 23.0778 -0.02841 
3.92467 22.8842 -0.77261 0.51979 26.9399 -3.96608 1.2839 26.7399 -3.78835 
2.11377 26.9015 -3.39588 2.52051 26.1316 -3.10597 2.93463 26.3152 -2.71807 
3.36843 26.2864 -2.15724 3.71832 26.4622 -1.47449 3.92922 26.2994 -0.74917 
3.99998 26.3685 0.01184 0.55062 33.9394 -3.96192 1.97271 35.0239 -3.47972 
1.14169 34.811 -3.83361 3.08146 35.1197 -2.55042 2.58816 34.8824 -3.04982 
3.73846 34.839 -1.42265 3.48539 34.8596 -1.96266 3.99999 34.9623 0.00668 
3.93189 35.0007 -0.73504 3.72154 23.0373 1.46633 3.93176 22.8918 0.73573 
2.91935 23.0975 2.73448 3.38141 22.9046 2.13684 1.64466 23.007 3.64624 
2.37652 22.8746 3.21747 0.49487 21.7358 3.96927 1.0407 22.3613 3.86225 
3.92575 26.2931 0.76713 3.70601 26.448 1.50515 3.34197 26.263 2.198 
2.88063 26.2536 2.77524 2.47122 26.0537 3.14532 2.08148 26.8047 3.41576 
1.2917 26.6842 3.7857 0.68296 26.9319 3.94126 3.73438 34.8292 1.43333 
3.92972 34.9963 0.74652 3.0571 35.1329 2.57956 3.47547 34.8531 1.98018 
1.86379 34.7857 3.53925 2.44652 34.9947 3.16457 0.53235 34.5863 3.96442 
1.24874 34.8315 3.80009 0.52811 -1.66823 -3.96498 0.45204 -0.84639 -3.97438 
1.07292 -1.10687 -3.85342 1.78369 -1.62004 -3.58029 1.06326 -0.32748 -3.8561 
0.75907 -0.48267 -3.92732 1.56772 -0.81885 -3.67998 1.35017 -0.49395 -3.76524 
2.33715 -1.17613 -3.24619 2.91025 -1.38515 -2.74416 2.25846 -0.53158 -3.30142 
1.95131 -0.75918 -3.49176 2.87334 -0.66995 -2.78279 2.61278 -0.56887 -3.02876 
3.35142 -1.10734 -2.18357 3.71158 -1.36738 -1.49136 3.31205 -0.49745 -2.24284 
3.09024 -0.6604 -2.53977 3.69991 -0.6572 -1.52008 3.54448 -0.54599 -1.85383 
3.92279 -1.09408 -0.78213 4 -1.34705 -0.00312 3.9109 -0.48582 -0.83958 
3.81268 -0.64663 -1.20974 3.99995 -0.64705 -0.01926 3.98089 -0.53487 -0.39052 
0.35215 1.2147 -3.98447 0.60895 0.58968 -3.95338 1.09375 0.62285 -3.84756 
1.36124 0.41025 -3.76125 1.6086 0.31642 -3.6623 2.01162 0.35229 -3.45737 
2.34331 0.45551 -3.24174 2.63225 0.38019 -3.01185 2.89599 0.38569 -2.75921 
3.15088 0.35872 -2.46413 3.37306 0.45257 -2.15 3.5589 0.39074 -1.82599 
3.71344 0.41132 -1.48674 3.84224 0.37865 -1.1123 3.93218 0.46215 -0.73344 
3.98386 0.3871 -0.35896 3.99996 0.39629 0.01684 3.92995 -1.09117 0.7453 
3.70953 -1.35634 1.49646 3.93889 -0.48438 0.69651 3.98788 -0.64025 0.3112 
3.71222 -0.65148 1.48977 3.8347 -0.53622 1.13801 3.36409 -1.08533 2.16399 
2.90685 -1.3059 2.74777 3.38661 -0.48683 2.12859 3.57735 -0.64249 1.78958 
2.88925 -0.63887 2.76626 3.13069 -0.53105 2.48974 2.35752 -1.09709 3.23142 
1.80695 -1.5696 3.5686 2.29815 -0.43655 3.27391 2.65143 -0.62659 2.99499 
[...]
POINT_DATA 687
FIELD FieldData 2
displacement 3 687 float
0 0 0 0 0 -5 0 0 -5 
0 0 -5 0 0 -5 0 0 -5 
0 0 -5 0 0 -5 0 0 -5 
0 0 -5 0 0 -5 0 0 -5 
0 0 -5 0 0 -5 0 0 -5 
0 0 -5 0 0 -5 0 0 -5 
0 0 -5 0 0 -5 0 0 -5 
0 0 -5 0 0 -5 0 0 -5 
0 0 -5 0 0 -5 0 0 -5 
0 0 -5 0 0 -5 0 0 -5 
0 0 -5 0 0 -5 0 0 -5 
0 0 -5 0 0 -5 0 0 -5 
0 0 -5 0 0 -5 0 0 -5 
0 0 -5 0 0 -5 0 0 -5 
0 0 -5 0 0 -5 0 0 -5 
0 0 -5 0 0 -5 0 0 -5 
0 0 -5 0 0 -5 0 0 -5 
0 0 -5 0 0 -5 0 0 -5 
0 0 -5 0 0 -5 0 0 -5 
0 0 -5 0 0 -5 0 0 -5 
0 0 -5 0 0 -5 0 0 -5 
0 0 -5 0 0 -5 0 0 -5 
0 0 -5 0 0 -5 0 0 -5 
0 0 -5 0 0 -5 0 0 -5 
0 0 -5 0 0 -5 0 0 -5 
0 0 -5 0 0 -5 0 0 -5 
0 0 -5 0 0 -5 0 0 -5 
0 0 -5 0 0 -5 0 0 -5 
0 0 -5 0 0 -5 0 0 -5 
0 0 -5 0 0 -5 0 0 -5 
0 0 -5 0 0 -5 0 0 -5 
0 0 -5 0 0 -5 0 0 -5 
0 0 -5 0 0 -5 0 0 -5 
0 0 -5 0 0 -5 0 0 -5 
0 0 -5 0 0 -5 0 0 -5 
0 0 -5 0 0 -5 0 0 -5 
0 0 -5 0 0 -5 0 0 -5 
0 0 -5 0 0 -5 0 0 -5 
0 0 -5 0 0 -5 0 0 -5 
0 0 -5 0 0 -5 0 0 -5 
0 0 -5 0 0 -5 0 0 -5 
0 0 -5 0 0 -5 0 0 -5 
0 0 -5 0 0 -5 0 0 -5 
0 0 -5 0 0 -5 0 0 -5 
0 0 -5 0 0 -5 0 0 -5 
0 0 -5 0 0 -5 0 0 -5 
0 0 -5 0 0 -5 0 0 -5 
0 0 -5 0 0 -5 0 0 -5 
0 0 -5 0 0 -5 0 0 -5 
0 0 -5 0 0 -5 0 0 -5 
0 0 7.15 0 0 7.15 0 0 7.15 
0 0 7.15 0 0 7.15 0 0 7.15 
0 0 7.15 0 0 7.15 0 0 7.15 
0 0 7.15 0 0 7.15 0 0 7.15 
0 0 7.15 0 0 7.15 0 0 7.15 
0 0 7.15 0 0 7.15 0 0 7.15 
0 0 7.15 0 0 7.15 0 0 7.15 
0 0 7.15 0 0 7.15 0 0 7.15 
0 0 7.15 0 0 7.15 0 0 0 
0 0 0 0 0 0 0 0 0 
0 0 0 0 0 0 0 0 0 
0 0 0 0 0 0 0 0 0 
0 0 0 0 0 0 0 0 0 
0 0 0 0 0 0 0 0 0 
0 0 0 0 0 0 0 0 0 
0 0 0 0 -0.6455 1.24588 0 -0.92392 2.43113 
0 -0.789372 3.25409 0 -0.405943 3.15999 0 -0.373079 1 
0 -0.272241 3.49406 0 0.202733 3.46179 0 0.30645 2 
0 0.44672 2 0 0.62684 1.77186 0 0.173941 0 
0 0.227001 0 0 0.18755 -1 0 -0.231541 1.96098 
0 0.088829 2.13759 0 0.27034 1.6111 0 0.190373 0.777255 
0 0 0 0 0 0 0 0 0 
0 0 0 0 0 0 0 0 0 
0 0 0 0 0 0 0 0 0 
0 0 0 0 0 0 0 0 0 
0 0 0 0 0 0 0 0 0 
0 0 0 0 0 0 0 0 0 
0 0.21323 -1.07598 0 0.10178 -1.99112 0 -0.293049 -1.99947 
0 -0.545851 -1.1469 0 -0.056469 1.15 -0 -0.214772 0.15 
0 -0.360969 0.15 0 -0.48246 0.15 -0 -0.50653 0.15 
0 -0.565995 0.15 0 -0.695068 0.15 0 -0.846052 0.473685 
0 -0.120528 3.15 0 0.965349 -0.269294 0 0.636874 -1.20083 
0 0.266141 -1.15228 0 0.06852 -0.609691 0 -0.823721 1.25787 
0 -0.688297 1.85619 0 -0.448262 2.49133 0 -0.587068 2.86251 
0 -0.526505 1.74472 0 -0.306666 1 0 -0.058481 0.15 
0 0.074329 0.346293 0 -0.081558 1.15 0 0.30416 0 
0 0.32135 -0.398144 -0 0.172491 -1 0 0.68104 1.5925 
0 -0.137782 3.15 0 -0.177515 2.3134 0 -0.410332 1 
0 -0.40039 0.112711 0 -0.03339 1.15 0 -0.396212 0.863271 
0 0.20265 -1 1.70079 -0.49815 -0.56367 1.3927 -0.708938 -0.111069 
0.947648 -0.737738 0.436583 1.89996 -0.387842 1.61297 2.87747 -0.186122 1.96257 
3.1626 -0.03607 0.968116 1.98874 -0.079006 2.42015 0.928551 -0.105547 3.384 
1.30523 0.24001 2.92099 1.72859 0.53316 2.56764 2.73584 0.006291 0.11287 
1.86509 -0.16882 -0.653128 0.714987 -0.241508 -0.08971 1.07325 -0.35611 -0.3418 
1.03878 0.25339 0.47134 0.676001 0.22443 0.24302 1.84234 0.206758 0.852764 
0.386887 0.324313 -1.20093 0.855869 0.689317 -0.899837 0.904825 0.187661 -1.05282 
1.18883 -0.067812 -0.660637 2.03454 0.15619 -0.460936 1.71161 -0.291718 -0.199223 
1.62294 -0.52321 0.356832 2.73802 -0.585147 0.99624 0.56359 0.856871 0.267086 
1.79399 0.225803 0.639705 1.1664 0.640787 0.302929 2.68282 -0.481565 1.60801 
2.50506 -0.191692 0.854099 0.577505 -0.804824 0.80056 1.1728 -0.621578 0.95745 
1.76661 -0.409519 1.23463 2.44151 -0.328859 1.53408 2.62995 -0.282303 2.04486 
1.7272 -0.73236 1.0807 1.20726 -0.80265 1.45141 2.05025 -0.858893 2.55631 
0.855331 -0.90235 2.09366 0.444019 -0.91046 2.61676 0.934597 -0.812147 3.07337 
1.72775 -0.529606 2.74223 2.5141 -0.646715 2.27719 0.501243 -0.528247 3.223 
1.1039 -0.498852 3.09947 2.4099 -0.27823 2.53953 1.73148 -0.331749 2.77317 
1.14058 -0.398498 3.01571 0.476459 -0.470032 3.14004 0.470323 -0.1327 0.02723 
1.61138 -0.036289 -0.52793 0.972188 -0.076371 -0.36968 2.52521 0.044849 0.052878 
2.31383 -0.033159 -0.427881 0.482266 -0.47418 -1.44217 0.839178 -0.06542 -2.05633 
1.16379 -0.29394 -1.47496 1.7102 -0.100561 -1.00908 2.01073 0.201749 -1.49995 
2.48956 0.210852 -0.684811 2.66383 0.29481 0.033371 2.71034 0.46958 0.019158 
0.459372 0.1916 -1.69066 1.18541 0.356559 -1.01851 0.907631 0.260712 -1.50972 
1.58457 0.46967 0.003343 1.68321 0.437489 -0.626768 1.61422 0.219099 0.648301 
2.32259 0.116819 0.541179 0.45523 0.25815 0.12444 0.954718 0.267509 0.52387 
2.4889 0.268768 0.757793 1.69297 0.0119 1.08547 2.01344 0.268379 1.55386 
1.16211 -0.158121 1.51374 0.492052 -0.318929 1.42092 0.83544 0.010981 2.11201 
1.19028 0.393639 1.04997 1.69611 0.461517 0.641626 0.389763 0.256489 1.76119 
0.911789 0.314923 1.56702 0.13261 0.10942 -0.821333 0.276135 0.06982 -0.716232 
0.420375 0.02311 -0.648123 0.499165 -0.02193 -0.523715 0.549263 -0.09146 -0.347282 
0.818477 -0.15961 -0.31396 0.886062 -0.23198 -0.178506 0.871433 -0.26715 -0.033027 
0.871766 -0.35332 0.143571 0.267569 0.787702 0.953546 0.871102 0.409975 1.54812 
0.498096 0.525703 1.69088 1.60124 0.078086 1.30509 1.19718 0.225696 1.46814 
2.34015 -0.227055 1.29937 2.02034 -0.090658 1.22955 2.61366 -0.447705 1.79736 
2.56866 -0.364085 1.5445 0.258832 -0.823126 1.14759 0.514613 -0.722375 1.5066 
0.773898 -0.547316 1.82824 1.22609 -0.464804 1.57164 1.59689 -0.355113 1.54409 
2.02336 -0.313604 1.47107 2.32126 -0.298285 1.60789 2.54401 -0.303281 1.80255 
2.58941 -0.321155 2.03865 0.879386 -0.39147 0.300252 0.877007 -0.48365 0.512698 
0.753744 -0.48597 0.631752 0.638506 -0.53338 0.759956 0.531916 -0.5427 0.881155 
0.403356 -0.58893 1.01549 0.215068 -0.53772 0.974323 0.303192 -0.81368 1.83302 
2.34906 -0.547831 2.29973 2.5667 -0.521343 2.08306 1.62396 -0.478095 2.42591 
2.02703 -0.531912 2.46101 1.07158 -0.347089 2.46996 1.27807 -0.415879 2.25975 
0.426805 -0.301232 2.81481 0.562001 -0.232745 2.21884 2.52199 -0.327355 2.27621 
2.2895 -0.351789 2.44227 1.98478 -0.357458 2.5456 1.56898 -0.395143 2.41649 
1.21002 -0.443439 2.35989 0.765353 -0.494013 2.06703 0.50143 -0.565577 2.40178 
0.289954 -0.571337 2.62899 0.22702 -0.079701 0.11953 0.724342 0.046749 0.032931 
0.453064 -0.002069 0.01347 1.51762 0.008242 -0.330354 1.14119 0.026708 -0.228807 
2.21739 0.01671 -0.345073 1.91805 -0.002779 -0.430786 2.50902 0.07715 0.034543 
2.44267 0.03503 -0.188048 0.239418 -0.480742 -0.325407 0.599875 -0.399509 -0.289646 
1.07264 -0.27936 -0.573016 1.25909 -0.10092 -0.238678 1.60031 -0.038509 -0.472632 
1.99639 0.06123 -0.550973 2.31946 0.147991 -0.453024 2.54005 0.212349 -0.230185 
2.58829 0.237619 0.037335 0.192913 0.197097 -1.40674 0.374624 0.209171 -0.705957 
0.251528 0.204689 -0.947821 0.558116 0.231438 -0.480843 0.580837 0.245491 -0.71146 
0.863651 0.317841 -0.345482 0.814848 0.293591 -0.476955 0.841976 0.321522 -0.00042 
0.851899 0.29816 -0.166064 2.23853 0.135688 0.431522 2.45649 0.097811 0.265765 
1.52643 0.211149 0.421451 1.9336 0.166781 0.526391 0.726464 0.310259 0.000884 
1.14539 0.268179 0.305447 0.219942 0.289339 0.03073 0.447024 0.330318 0.066699 
2.54592 0.249349 0.304821 2.32365 0.218232 0.539069 1.99364 0.16218 0.648147 
1.57432 0.08728 0.562669 1.23685 0.04854 0.330476 1.06493 -0.12393 0.664938 
0.621348 -0.217199 0.447705 0.322446 -0.28281 0.551727 0.874054 0.33276 0.347854 
0.857054 0.305561 0.164561 0.555249 0.249321 0.478037 0.825257 0.31213 0.481985 
0.429724 0.26506 0.85627 0.514971 0.250927 0.69059 0.139344 0.25214 1.08758 
0.289182 0.236389 0.930588 0.25059 -0.137824 3.11498 0.217371 -0.125225 3.12438 
0.507715 -0.117429 3.00342 0.812434 -0.073347 2.73029 0.507112 -0.103814 3.0061 
0.364116 -0.113759 3.07732 0.701393 -0.113699 2.82998 0.61747 -0.114617 2.91524 
1.09123 -0.112682 2.39619 1.49761 -0.127989 1.89416 1.0516 -0.15895 2.45142 
0.876821 -0.130816 2.64176 1.47241 -0.181308 1.96661 1.27545 -0.172228 2.17876 
1.91919 -0.195186 1.64218 2.32709 -0.267436 1.53173 1.87855 -0.224475 1.69879 
1.6645 -0.196748 1.81049 2.27771 -0.273831 1.6364 2.11875 -0.246842 1.63933 
2.52586 -0.341952 1.71939 2.62777 -0.421459 1.91453 2.49675 -0.324006 1.76134 
2.39916 -0.298702 1.67599 2.58724 -0.386466 1.96881 2.57247 -0.357049 1.87291 
0.172982 -0.68018 1.87457 0.286868 -0.464993 2.43103 0.492627 -0.450781 2.34664 
0.604737 -0.344382 2.47257 0.719722 -0.31642 2.43206 0.937329 -0.342905 2.18908 
1.13714 -0.351652 1.99609 1.31984 -0.314192 1.88542 1.53267 -0.294544 1.74443 
1.75958 -0.279704 1.64189 1.96681 -0.279974 1.59105 2.14869 -0.27716 1.60213 
2.29552 -0.287777 1.6434 2.43164 -0.29666 1.71571 2.51639 -0.312142 1.81118 
2.57014 -0.326317 1.9173 2.57748 -0.341289 2.02613 2.52831 -0.453405 2.15895 
2.32913 -0.497173 2.33243 2.51725 -0.413786 2.17703 2.57517 -0.405599 2.06488 
2.28798 -0.448272 2.33294 2.41344 -0.433415 2.27847 1.96563 -0.47254 2.36388 
1.56494 -0.456109 2.25223 1.96784 -0.44003 2.35753 2.1558 -0.451316 2.36262 
1.525 -0.429616 2.16548 1.7347 -0.436428 2.28646 1.13713 -0.418983 1.76858 
0.827153 -0.409374 1.4314 1.10134 -0.386312 1.72609 1.33666 -0.417123 2.00501 
0.701596 -0.362072 1.31231 0.901561 -0.375813 1.5109 0.472688 -0.372498 1.13568 
0.217967 -0.316414 1.41293 0.46374 -0.322527 1.12828 0.595231 -0.338084 1.22136 
0.164264 -0.367143 1.01574 0.275508 -0.327263 1.04411 2.55868 -0.354557 2.14156 
2.49269 -0.362039 2.24801 2.40113 -0.373976 2.33332 2.27046 -0.382619 2.39269 
2.11378 -0.388903 2.42598 1.93003 -0.389941 2.42169 1.73372 -0.396188 2.35203 
1.52673 -0.392127 2.20928 1.31973 -0.37705 1.95732 1.13468 -0.387519 1.93265 
0.929255 -0.36491 1.70402 0.735156 -0.294974 1.31929 0.617045 -0.33946 1.38874 
0.49046 -0.438909 1.59962 0.280463 -0.475283 1.62469 0.213775 -0.567591 2.19074 
0.179837 0.02173 0.190456 0.467432 0.056511 0.336953 0.261783 0.06008 0.375978 
0.716552 0.030079 0.412909 0.59817 0.040309 0.416652 1.09859 0.0286 0.067907 
0.918594 0.03156 0.234346 1.51793 0.010519 -0.186746 1.2843 0.015449 -0.040903 
1.89386 0.01433 -0.34738 1.73566 0.010038 -0.313421 2.20803 0.037319 -0.313593 
2.06587 0.024139 -0.345513 2.42803 0.062689 -0.172597 2.3449 0.051128 -0.253178 
2.51113 0.099699 0.016742 2.48306 0.075699 -0.088271 0.105398 -0.057381 1.14429 
0.260778 -0.023738 1.11439 0.282378 -0.06682 1.10906 0.516137 -0.069589 1.01228 
0.578157 -0.033989 0.97321 0.675334 -0.056009 0.91121 0.757503 -0.035209 0.81459 
0.862609 -0.010161 0.68515 0.914582 -0.022921 0.63489 1.06521 -0.01852 0.45239 
1.1245 -0.004299 0.37494 1.27323 5.9e-05 0.18434 1.46223 0.010858 -0.017088 
1.51672 0.016579 -0.10578 1.63464 0.022428 -0.153374 1.83353 0.033411 -0.258348 
1.89602 0.051911 -0.296983 2.06843 0.056249 -0.308721 2.22648 0.08285 -0.298403 
2.28414 0.117701 -0.352962 2.34176 0.099881 -0.259455 2.43589 0.109251 -0.183447 
2.47818 0.146901 -0.184786 2.51841 0.13207 -0.06803 2.53953 0.153268 0.037357 
2.59103 0.195332 0.032647 2.44162 0.12039 0.249446 2.49969 0.112671 0.148435 
2.25206 0.14652 0.389047 2.37019 0.129101 0.326782 1.90987 0.16802 0.44378 
2.08356 0.15617 0.436245 1.52841 0.190991 0.290407 1.75069 0.178421 0.412783 
1.10151 0.241628 0.011281 1.27784 0.20956 0.122887 0.749416 0.224239 -0.430091 
0.946659 0.25321 -0.11661 0.472322 0.293779 -0.401155 0.604574 0.2402 -0.494377 
0.18081 0.3304 -0.156314 0.271853 0.304291 -0.429892 2.53054 0.162458 0.127752 
2.47532 0.161261 0.225408 2.49671 0.192681 0.250377 2.37273 0.17004 0.32967 
2.24062 0.17569 0.389683 2.29976 0.20109 0.439634 2.077 0.171612 0.40656 
1.84613 0.171622 0.367464 1.90063 0.17341 0.403635 1.63676 0.171961 0.270109 
1.46061 0.17149 0.143888 1.51152 0.157872 0.22549 1.28989 0.174042 -0.02059 
1.07284 0.17696 -0.28651 1.11462 0.165859 -0.2419 0.885809 0.174369 -0.50706 
0.70648 0.175249 -0.69474 0.843242 0.162171 -0.55718 0.609486 0.175202 -0.78493 
0.493461 0.17268 -0.87159 0.517264 0.18922 -0.85693 0.294764 0.175162 -0.95497 
0.182018 0.18725 -0.98277 0.234663 -0.0086 -0.363721 0.211929 -0.112311 3.12602 
0.408937 -0.101808 3.05925 0.529138 -0.14871 2.88106 0.64082 -0.125759 2.90766 
0.776734 -0.14405 2.7687 0.950629 -0.169679 2.57894 1.13416 -0.202036 2.37334 
1.30487 -0.212643 2.16639 1.50167 -0.226088 1.9162 1.75195 -0.234529 1.74395 
1.97239 -0.253165 1.64408 2.13212 -0.263817 1.63431 2.29627 -0.278425 1.65348 
2.43621 -0.303687 1.72258 2.52722 -0.32129 1.81427 2.56603 -0.341935 1.90308 
2.58877 -0.362681 2.00686 2.55301 -0.385837 2.12845 2.48917 -0.389642 2.23738 
2.39641 -0.402915 2.3051 2.2793 -0.414247 2.36365 2.08704 -0.422562 2.3824 
1.90278 -0.414356 2.37152 1.71722 -0.414577 2.29438 1.51463 -0.410908 2.16652 
1.2655 -0.391208 1.91217 1.11701 -0.361572 1.72104 0.960307 -0.356052 1.55945 
0.7687 -0.332738 1.36787 0.612862 -0.310965 1.2255 0.514801 -0.292917 1.15242 
0.374815 -0.289679 1.07881 0.191179 -0.285925 1.01992 0.166599 0.010371 0.773025 
0.364913 0.018742 0.707135 0.508746 0.01654 0.631206 0.634108 -0.03042 0.733099 
0.813169 -0.04998 0.7681 0.972564 -0.0341 0.58017 1.12985 -0.024512 0.37848 
1.27836 -0.0054 0.17945 1.44122 0.005668 -0.019288 1.67824 0.01614 -0.214156 
1.91131 0.025379 -0.310024 2.06618 0.040748 -0.318038 2.22518 0.05758 -0.301059 
2.36611 0.081039 -0.234363 2.45468 0.086979 -0.155349 2.50574 0.10433 -0.050226 
2.53085 0.129089 0.05284 2.50269 0.141178 0.163275 2.44373 0.140279 0.258954 
2.33657 0.149179 0.342352 2.21576 0.16082 0.394019 2.07267 0.164311 0.412695 
1.92456 0.16754 0.41002 1.69029 0.176119 0.327677 1.44208 0.180922 0.147553 
1.22912 0.18376 -0.09646 1.09189 0.183679 -0.27123 0.916377 0.180701 -0.4785 
0.750615 0.177639 -0.65836 0.63887 0.174169 -0.77107 0.547949 0.16267 -0.8431 
0.392315 0.169121 -0.847613 0.194826 0.17926 -0.859952 2.89482 -0.356556 0.62193 
2.86211 0.116725 2.3116 2.58765 -0.2082 -0.26059 2.56332 0.15666 0.941202 

thickness 1 687 float
0.907029 0.907029 0.907029 0.907029 0.907029 0.907029 0.907029 0.907029 0.907029 
0.907029 0.907029 0.907029 0.907029 0.907029 0.907029 0.907029 0.907029 0.907029 
0.907029 0.907029 0.907029 0.907029 0.907029 0.907029 0.907029 0.907029 0.907029 
0.907029 0.907029 0.907029 0.907029 0.907029 0.907029 0.907029 0.907029 0.907029 
0.907029 0.907029 0.907029 0.907029 0.907029 0.907029 0.907029 0.907029 0.907029 
0.907029 0.907029 0.907029 0.907029 0.907029 0.907029 0.907029 0.907029 0.907029 
0.907029 0.907029 0.907029 0.907029 0.907029 0.907029 0.907029 0.907029 0.907029 
0.907029 0.907029 0.907029 0.907029 0.907029 0.907029 0.907029 0.907029 0.907029 
0.907029 0.907029 0.907029 0.907029 0.907029 0.907029 0.907029 0.907029 0.907029 
0.907029 0.907029 0.907029 0.907029 0.907029 0.907029 0.907029 0.907029 0.907029 
0.907029 0.907029 0.907029 0.907029 0.907029 0.907029 0.907029 0.907029 0.907029 
0.907029 0.907029 0.907029 0.907029 0.907029 0.907029 0.907029 0.907029 0.907029 
0.907029 0.907029 0.907029 0.907029 0.907029 0.907029 0.907029 0.907029 0.907029 
0.907029 0.907029 0.907029 0.907029 0.907029 0.907029 0.907029 0.907029 0.907029 
0.907029 0.907029 0.907029 0.907029 0.907029 0.907029 0.907029 0.907029 0.907029 
0.907029 0.907029 0.907029 0.907029 0.907029 0.907029 0.907029 0.907029 0.907029 
0.907029 0.907029 0.907029 0.907029 0.907029 0.907029 0.907029 0.907029 0.907029 
0.907029 0.907029 0.907029 0.907029 0.907029 0.907029 0.907029 0.907029 0.907029 
0.907029 0.907029 0.907029 0.907029 0.907029 0.907029 0.907029 0.907029 0.907029 
0.907029 0.907029 0.907029 0.907029 0.907029 0.732176 0.823129 0.678936 0.735419 
0.687342 0.755922 0.727358 0.744481 0.736508 0.810938 0.760835 0.829602 0.767156 
0.833045 0.771087 0.831201 0.761852 0.821144 0.777172 0.78757 0.701751 0.568985 
0.494612 0.472858 0.574135 0.459442 0.462427 0.496996 0.503431 0.531744 0.595828 
0.603551 0.597441 0.487495 0.518536 0.596369 0.706927 0.780838 0.727694 0.787443 
0.730516 0.797876 0.762828 0.770094 0.749116 0.816709 0.757774 0.814496 0.74666 
0.764355 0.757736 0.748565 0.740857 0.777285 0.735639 0.664041 0.540784 0.483633 
0.482852 0.583605 0.571457 0.57599 0.556405 0.53519 0.522104 0.519139 0.527337 
0.603379 0.482553 0.499781 0.564272 0.660561 0.542349 0.554916 0.574474 0.48147 
0.50402 0.561102 0.567393 0.569329 0.575149 0.596432 0.592426 0.594341 0.49376 
0.571271 0.47879 0.52643 0.484487 0.555391 0.488759 0.535433 0.550558 0.526898 
0.529655 0.599351 0.643468 0.57102 0.559497 0.468494 0.498031 0.537788 0.644962 
0.618422 0.589813 0.586657 0.605629 0.622304 0.647556 0.545303 0.500767 0.567537 
0.601865 0.540606 0.602312 0.633256 0.559463 0.495231 0.596607 0.53641 0.604704 
0.601293 0.543125 0.576949 0.638528 0.665837 0.653595 0.618182 0.631173 0.538102 
0.5994 0.543264 0.501856 0.560073 0.576707 0.477663 0.500577 0.632363 0.589495 
0.517369 0.480634 0.5829 0.633441 0.60282 0.66384 0.650544 0.488753 0.508604 
0.517056 0.579741 0.539462 0.588263 0.602983 0.560366 0.56473 0.615455 0.585503 
0.633334 0.609764 0.654652 0.662241 0.612122 0.627904 0.590603 0.584872 0.543213 
0.524724 0.500844 0.509774 0.620155 0.61156 0.572294 0.590692 0.605059 0.641383 
0.627444 0.665384 0.682748 0.671509 0.667134 0.708895 0.696849 0.496113 0.545863 
0.524527 0.6563 0.621925 0.660788 0.677734 0.642076 0.653967 0.543137 0.561773 
0.601997 0.645428 0.687827 0.688873 0.691412 0.678696 0.669617 0.724132 0.692878 
0.726097 0.702295 0.72232 0.68453 0.713624 0.610103 0.617755 0.629139 0.610354 
0.617266 0.532816 0.599965 0.479503 0.507239 0.65694 0.652675 0.641234 0.637231 
0.582966 0.531308 0.503066 0.487682 0.571969 0.597895 0.582248 0.659748 0.628739 
0.671012 0.664264 0.674472 0.669265 0.48339 0.523024 0.556651 0.632894 0.641347 
0.648382 0.638147 0.638879 0.640026 0.599016 0.680388 0.665744 0.70213 0.675031 
0.676322 0.686643 0.694605 0.713408 0.680039 0.674012 0.681536 0.678765 0.626619 
0.652776 0.600672 0.606584 0.639876 0.639853 0.651618 0.645185 0.636195 0.560809 
0.533017 0.511498 0.678744 0.714902 0.70858 0.690109 0.661642 0.699012 0.644012 
0.682159 0.548547 0.609634 0.63693 0.649134 0.664456 0.617185 0.716739 0.694835 
0.728458 0.729645 0.748824 0.736833 0.764669 0.762522 0.745914 0.702299 0.75105 
0.762111 0.717797 0.733291 0.68546 0.659762 0.693586 0.703938 0.670498 0.679314 
0.55087 0.548253 0.560036 0.583423 0.631024 0.655274 0.655509 0.696272 0.722168 
0.726694 0.717184 0.714193 0.706399 0.695157 0.686921 0.679568 0.67386 0.654765 
0.644703 0.663171 0.66464 0.658863 0.659151 0.656375 0.647541 0.667359 0.660805 
0.669215 0.669845 0.645179 0.589159 0.658486 0.665555 0.633294 0.646219 0.587006 
0.519241 0.607429 0.625261 0.573192 0.585445 0.666905 0.663125 0.660234 0.662313 
0.661182 0.664145 0.667738 0.676502 0.64665 0.606343 0.605768 0.580083 0.558662 
0.523841 0.503716 0.492791 0.570583 0.585413 0.574021 0.60309 0.590381 0.6346 
0.623936 0.687644 0.668498 0.680943 0.681732 0.680151 0.681849 0.674694 0.676295 
0.675355 0.673607 0.585025 0.536293 0.586626 0.594924 0.61058 0.650715 0.682335 
0.629411 0.691644 0.700866 0.687743 0.708794 0.711063 0.689722 0.70855 0.701837 
0.696635 0.691586 0.683524 0.669643 0.676817 0.675419 0.666869 0.670612 0.668897 
0.657401 0.678184 0.675803 0.686589 0.679636 0.693155 0.690971 0.704043 0.695835 
0.653063 0.690027 0.659839 0.643759 0.593634 0.623928 0.596151 0.592732 0.669638 
0.675864 0.667534 0.680232 0.687403 0.672539 0.69665 0.708081 0.700826 0.715261 
0.717011 0.694627 0.716847 0.713403 0.696784 0.703968 0.688615 0.633992 0.674473 
0.633228 0.623037 0.604241 0.594477 0.53289 0.587671 0.583781 0.607158 0.649086 
0.699784 0.718457 0.706372 0.741234 0.751676 0.753892 0.734802 0.727549 0.714401 
0.699435 0.6875 0.680076 0.672876 0.666187 0.662715 0.661339 0.661801 0.665791 
0.669486 0.673312 0.675847 0.67087 0.645555 0.647765 0.635856 0.621605 0.583112 
0.555051 0.538118 0.574278 0.577424 0.582704 0.608903 0.652644 0.675722 0.673081 
0.702287 0.704402 0.700783 0.691703 0.688986 0.683349 0.677618 0.674697 0.673767 
0.672881 0.674643 0.678313 0.6835 0.69021 0.695911 0.700227 0.71023 0.716457 
0.716475 0.677578 0.683479 0.691082 0.66362 0.602567 0.588324 0.590515 0.572917 
0.562502 0.60986 0.626691 
