# vtk DataFile Version 2.0
Different strain flavors.
ASCII
DATASET STRUCTURED_POINTS
DIMENSIONS 6 8 1
ORIGIN 0.0 0.0 0.0
SPACING 1.0 1.0 1.0

POINT_DATA 48
TENSORS strain double
1 -2.4492935982947065376e-17 0
0 0.5999999999999999778 0
0 0 0.4000000000000000222

0.69999999999999995559 0.17320508075688778593 0
0.17320508075688773042 0.89999999999999991118 0
0 0 0.4000000000000000222

0.69999999999999984457 -0.17320508075688773042 0
-0.17320508075688767491 0.90000000000000013323 0
0 0 0.4000000000000000222

1 -7.3478807948841189965e-17 0
-4.8985871965894130752e-17 0.5999999999999999778 0
0 0 0.4000000000000000222

0.70000000000000017764 0.17320508075688784144 0
0.17320508075688784144 0.89999999999999980016 0
0 0 0.4000000000000000222

0.70000000000000017764 -0.17320508075688773042 0
-0.17320508075688778593 0.89999999999999991118 0
0 0 0.4000000000000000222

-1 9.7971743931788261504e-17 0
0 0.5999999999999999778 0
0 0 0.4000000000000000222

0.19999999999999962252 -0.69282032302755092168 0
-0.69282032302755114372 -0.59999999999999964473 0
0 0 0.4000000000000000222

0.20000000000000031641 0.69282032302755069963 0
0.69282032302755058861 -0.60000000000000031086 0
0 0 0.4000000000000000222

-1 2.9391523179536475986e-16 0
1.9594348786357652301e-16 0.5999999999999999778 0
0 0 0.4000000000000000222

0.19999999999999928946 -0.69282032302755136577 0
-0.69282032302755136577 -0.59999999999999931166 0
0 0 0.4000000000000000222

0.19999999999999990008 0.69282032302755114372 0
0.6928203230275510327 -0.59999999999999986677 0
0 0 0.4000000000000000222

-1 2.4492935982947065376e-17 0
0 -0.5999999999999999778 0
0 0 0.4000000000000000222

-0.69999999999999995559 -0.17320508075688778593 0
-0.17320508075688773042 -0.89999999999999991118 0
0 0 0.4000000000000000222

-0.69999999999999984457 0.17320508075688773042 0
0.17320508075688767491 -0.90000000000000013323 0
0 0 0.4000000000000000222

-1 7.3478807948841189965e-17 0
4.8985871965894130752e-17 -0.5999999999999999778 0
0 0 0.4000000000000000222

-0.70000000000000017764 -0.17320508075688784144 0
-0.17320508075688784144 -0.89999999999999980016 0
0 0 0.4000000000000000222

-0.70000000000000017764 0.17320508075688773042 0
0.17320508075688778593 -0.89999999999999991118 0
0 0 0.4000000000000000222

-1 9.7971743931788261504e-17 0
0 0.5999999999999999778 0
0 0 -0.4000000000000000222

0.19999999999999962252 -0.69282032302755092168 0
-0.69282032302755114372 -0.59999999999999964473 0
0 0 -0.4000000000000000222

0.20000000000000031641 0.69282032302755069963 0
0.69282032302755058861 -0.60000000000000031086 0
0 0 -0.4000000000000000222

-1 2.9391523179536475986e-16 0
1.9594348786357652301e-16 0.5999999999999999778 0
0 0 -0.4000000000000000222

0.19999999999999928946 -0.69282032302755136577 0
-0.69282032302755136577 -0.59999999999999931166 0
0 0 -0.4000000000000000222

0.19999999999999990008 0.69282032302755114372 0
0.6928203230275510327 -0.59999999999999986677 0
0 0 -0.4000000000000000222

1 -9.7971743931788261504e-17 0
0 -0.5999999999999999778 0
0 0 0.4000000000000000222

-0.19999999999999962252 0.69282032302755092168 0
0.69282032302755114372 0.59999999999999964473 0
0 0 0.4000000000000000222

-0.20000000000000031641 -0.69282032302755069963 0
-0.69282032302755058861 0.60000000000000031086 0
0 0 0.4000000000000000222

1 -2.9391523179536475986e-16 0
-1.9594348786357652301e-16 -0.5999999999999999778 0
0 0 0.4000000000000000222

-0.19999999999999928946 0.69282032302755136577 0
0.69282032302755136577 0.59999999999999931166 0
0 0 0.4000000000000000222

-0.19999999999999990008 -0.69282032302755114372 0
-0.6928203230275510327 0.59999999999999986677 0
0 0 0.4000000000000000222

1 -9.7971743931788261504e-17 0
0 -0.5999999999999999778 0
0 0 -0.4000000000000000222

-0.19999999999999962252 0.69282032302755092168 0
0.69282032302755114372 0.59999999999999964473 0
0 0 -0.4000000000000000222

-0.20000000000000031641 -0.69282032302755069963 0
-0.69282032302755058861 0.60000000000000031086 0
0 0 -0.4000000000000000222

1 -2.9391523179536475986e-16 0
-1.9594348786357652301e-16 -0.5999999999999999778 0
0 0 -0.4000000000000000222

-0.19999999999999928946 0.69282032302755136577 0
0.69282032302755136577 0.59999999999999931166 0
0 0 -0.4000000000000000222

-0.19999999999999990008 -0.69282032302755114372 0
-0.6928203230275510327 0.59999999999999986677 0
0 0 -0.4000000000000000222

1 -2.4492935982947065376e-17 0
0 0.5999999999999999778 0
0 0 -0.4000000000000000222

0.69999999999999995559 0.17320508075688778593 0
0.17320508075688773042 0.89999999999999991118 0
0 0 -0.4000000000000000222

0.69999999999999984457 -0.17320508075688773042 0
-0.17320508075688767491 0.90000000000000013323 0
0 0 -0.4000000000000000222

1 -7.3478807948841189965e-17 0
-4.8985871965894130752e-17 0.5999999999999999778 0
0 0 -0.4000000000000000222

0.70000000000000017764 0.17320508075688784144 0
0.17320508075688784144 0.89999999999999980016 0
0 0 -0.4000000000000000222

0.70000000000000017764 -0.17320508075688773042 0
-0.17320508075688778593 0.89999999999999991118 0
0 0 -0.4000000000000000222

-1 2.4492935982947065376e-17 0
0 -0.5999999999999999778 0
0 0 -0.4000000000000000222

-0.69999999999999995559 -0.17320508075688778593 0
-0.17320508075688773042 -0.89999999999999991118 0
0 0 -0.4000000000000000222

-0.69999999999999984457 0.17320508075688773042 0
0.17320508075688767491 -0.90000000000000013323 0
0 0 -0.4000000000000000222

-1 7.3478807948841189965e-17 0
4.8985871965894130752e-17 -0.5999999999999999778 0
0 0 -0.4000000000000000222

-0.70000000000000017764 -0.17320508075688784144 0
-0.17320508075688784144 -0.89999999999999980016 0
0 0 -0.4000000000000000222

-0.70000000000000017764 0.17320508075688773042 0
0.17320508075688778593 -0.89999999999999991118 0
0 0 -0.4000000000000000222

