# vtk DataFile Version 2.0
File written by itkPolyDataMeshIO
ASCII
DATASET POLYDATA
POINTS 696 float
111.427 107.784 124.284
109.155 110.038 122.717
110.76 117.418 107.808
119.303 114.669 125.661
116.463 111.174 120.975
119.379 114.115 123.238
112.052 112.997 128.405
114.474 111.261 128.764
115.727 123.968 108.652
117.708 117.513 128.494
119.075 114.186 121.498
117.772 113.83 127.531
116.688 121.241 124.707
114.353 109.292 127.123
114.242 119.175 123.121
115.408 115.444 129.055
118.352 113.696 126.731
114.976 116.894 128.801
120.554 116.301 122.341
118.575 113.955 126.804
116.767 111.03 126.664
118.96 113.768 125.853
116.549 116.475 113.625
116.686 126.554 117.223
119.658 117.733 117.572
118.315 115.817 127.647
117.993 112.151 125.714
120.446 118.588 125.656
116.196 110.775 123.968
118.181 113.919 127.185
118.052 114.824 127.709
116.592 114.446 128.85
118.727 113.764 126.334
118.592 112.88 125.942
118.992 112.712 124.154
119.036 114.51 126.401
120.094 116.242 126.598
117.695 112.493 127.08
118.583 114.536 127.267
113.406 115.021 128.609
111.412 115.281 124.786
113.212 117.521 126.722
116.388 122.874 120.21
119.747 113.797 124.567
120.351 115.645 124.114
119.844 115.249 126.268
110.221 116.92 117.586
117.376 115.547 128.638
117.846 113.394 127.053
117.046 113.052 127.75
120.22 116.02 125.358
121.119 117.316 124.378
120.17 119.466 122.877
114.763 113.357 129.133
113.18 121.973 115.771
113.642 109.215 122.416
112.201 110.537 115.071
114.054 109.758 118.43
116.917 113.283 116.767
118.237 112.565 122.538
116.741 111.807 127.772
115.578 110.727 127.752
115.973 112.707 128.911
118.433 113.277 126.339
118 112.669 126.435
117.7 111.876 126.45
117.263 111.274 125.682
115.924 109.938 125.44
117.928 111.645 124.379
114.637 109.303 124.099
120.457 117.304 125.88
119.244 118.198 127.281
117.199 119.861 127.103
109.748 108.816 118.487
118.062 114.3 127.585
117.472 114.408 128.429
119.684 116.428 119.922
119.642 119.39 120.107
118.62 121.408 117.399
119.503 123.207 122.055
111.628 114.936 127.238
110.304 111.834 125.638
119.244 120.195 126.571
112.095 110.287 128.151
119.076 113.125 125.042
118.533 114.106 118.809
117.932 112.755 120.649
116.958 112.106 118.785
115.23 111.581 117.396
114.76 112.926 114.057
110.316 113.75 111.162
109.286 118.73 112.568
117.684 123.374 113.04
109.076 112.811 119.187
118.367 115.615 116.593
118.614 118.04 115.003
117.515 119.675 112.23
114.613 117.108 109.855
108.95 114.1 114.977
116.327 116.811 128.874
116.185 118.34 127.99
115.114 119.376 126.461
114.607 117.998 127.665
121.069 118.985 123.999
120.252 120.994 124.682
110.058 112.989 122.675
111.63 116.127 121.043
113.073 119.57 118.871
111.495 107.51 120.967
119.632 121.469 122.974
118.181 123.076 124.047
116.751 122.16 122.447
115.163 120.724 121.084
114.774 121.61 118.795
115.658 124.212 118.168
114.601 125.013 115.601
115.294 132.529 111.107
115.754 129.237 113.962
111.31 124.119 111.595
112.489 128.748 110.255
118.581 124.668 118.417
119.561 121.361 120.989
118.545 123.086 120.127
119.233 120.934 119.082
119.206 119.591 117.595
118.657 120.011 115.764
118.649 122.767 115.219
117.714 125.44 115.015
116.788 126.54 112.389
116.796 129.599 110.875
117.83 119.6 114.065
117.596 121.369 113.304
116.589 121.833 111.138
114.699 120.349 108.476
110.428 122.943 104.785
113.479 122.413 106.209
113.428 127.91 104.676
115.124 131.063 107.169
115.917 119.352 110.369
110.99 119.943 105.823
108.67 120.761 109.188
116.156 117.399 111.564
114.748 114.697 111.525
118.417 121.61 125.549
120.448 117.894 122.949
119.615 118.158 121.479
113.622 110.658 116.523
111.876 108.962 117.173
109.691 110.146 115.986
109.999 111.721 113.323
114.389 125.555 106.387
115.687 127.218 108.946
112.263 125.221 104.194
109.358 126.673 107.109
112.966 108.503 123.979
112.393 108.668 126.264
110.389 109.506 125.779
112.41 108.037 122.33
113.135 108.644 120.274
110.917 107.468 122.63
109.685 108.525 121.292
110.036 108.757 123.732
109.082 110.569 120.274
114.681 110.055 120.384
109.013 111.036 117.889
109.394 110.232 124.591
109.31 111.651 123.6
109.151 111.711 121.694
109.881 113.049 120.805
109.966 114.979 119.166
110.458 114.65 121.689
111.576 115.571 122.915
113.005 117.17 124.172
112.502 117.306 122.333
112.541 118.012 120.284
111.631 118.12 118.441
110.898 119.525 115.632
111.048 121.863 113.566
112.014 119.759 117.215
109.063 115.05 116.973
109.142 117.249 114.928
109.024 115.857 112.489
109.241 117.34 110.153
113.493 120.973 117.61
114.397 122.857 117.357
108.958 112.103 115.877
110.762 115.458 109.294
113.559 119.702 120.73
117.398 118.089 113.098
112.56 112.563 112.346
111.412 108.619 119.392
112.705 114.212 110.137
109.562 132.557 104.795
110.307 112.747 124.353
110.57 113.743 126.066
110.454 114.305 123.73
110.859 112.626 127.248
110.458 110.952 126.883
111.228 109.812 127.008
111.418 111.607 127.886
112.451 111.768 128.904
113.24 113.279 129.294
113.419 116.619 128.046
110.872 116.583 119.292
109.442 128.198 102.944
117.326 128.116 115.392
115.481 127.037 114.683
113.715 127.575 112.568
113.871 125.587 113.656
114.402 130.06 111.842
112.893 131.481 109.7
112.804 137.461 107.344
110.679 129.808 107.449
113.585 134.441 108.702
113.323 123.615 114.44
111.53 132.798 107.135
112.795 131.908 103.845
110.874 135.695 105.353
114.054 135.124 105.211
112.337 124.337 113.129
112.491 125.92 111.966
110.594 126.076 109.686
109.083 123.634 107.892
116.304 131.13 112.741
115.429 110.014 122.455
113.513 111.737 114.95
115.14 112.193 115.663
116.112 113.882 115.048
115.383 114.74 113.325
112.647 111.465 113.645
111.232 110.601 113.728
109.912 110.675 114.503
109.021 111.868 114.427
108.955 113.529 113.005
110.905 110.079 115.332
110.634 109.099 116.445
109.445 109.266 117.117
112.01 109.454 115.868
112.664 109.832 116.75
112.526 109.475 118.267
113.166 110.648 129.04
113.161 109.497 127.958
109.058 109.827 118.109
109.093 109.416 119.57
110.135 108.567 119.84
116.714 124.276 111.396
116.731 126.099 110.345
112.913 116.488 108.295
113.044 118.714 107.246
110.722 108.873 117.717
111.533 111.648 112.755
111.167 112.738 111.791
112.433 113.125 111.029
113.733 113.511 111.744
113.719 112.959 113.046
114.594 113.931 112.581
109.895 113.012 112.218
109.242 114.057 111.835
109.609 115.155 110.561
111.41 113.627 110.274
111.745 114.479 109.235
113.043 115.388 109.235
114.043 115.076 110.279
114.849 116.165 111.001
115.176 115.735 112.275
110.581 114.502 110.25
109.79 121.688 111.34
109.831 123.39 109.928
113.779 108.63 125.339
112.491 127.494 111.336
111.363 127.521 110.127
111.229 128.715 108.788
110.43 127.309 108.769
110.361 128.15 107.288
109.453 129.254 105.202
109.45 130.676 103.188
110.226 135.009 100.718
111.696 129.57 102.674
110.748 131.851 100.908
109.459 125.957 108.508
109.233 125.05 107.12
109.486 125.769 104.361
109.175 123.468 106.028
109.585 121.439 107.04
111.892 130.316 108.754
109.995 124.649 109.02
109.404 127.774 105.884
110.689 124.751 110.377
111.574 126.025 110.81
111.471 131.224 107.417
110.341 130.785 105.874
112.423 132.156 108.314
113.643 132.922 109.416
115.097 133.939 109.907
115.277 133.566 107.401
116.491 132.265 109.216
112.477 133.617 108.07
112.301 135.523 107.435
111.519 134.312 107.009
110.506 133.48 105.895
109.921 134.42 104.36
108.796 138.702 102.788
109.522 132.978 102.597
109.651 136.771 103.83
112.416 137.759 103.461
108.795 136.341 101.78
110.83 138.127 101.232
110.71 139.952 105.058
115.251 136.286 107.897
109.295 125.818 105.846
109.259 124.555 105.098
110.473 124.446 103.831
110.921 126.469 102.651
113.662 128.675 111.473
114.774 128.795 112.596
114.771 127.753 113.645
109.786 119.332 107.584
113.274 129.881 110.848
114.026 131.228 110.891
115.4 130.061 112.892
116.864 129.053 112.586
116.808 127.833 111.208
115.078 131.296 111.973
109.384 128.002 104.407
109.94 126.971 103.557
109.416 129.227 103.837
109.63 129.489 102.536
109.789 130.865 101.645
110.675 128.527 102.32
112.182 127.828 103.132
109.473 130.42 104.503
111.183 130.883 102.024
112.092 132.688 102.106
112.648 134.202 103.729
111.883 134.973 101.864
109.503 131.577 104.04
109.486 131.832 102.936
109.626 132.063 101.828
110.022 133.537 101.35
109.582 134.853 102.42
109.536 132.732 103.682
109.57 133.938 103.346
109.616 135.216 103.497
110.126 135.695 104.448
110.533 137.135 104.833
109.805 138.682 104.086
109.243 141.486 103.422
111.619 137.098 106.138
112.23 139.139 106.053
114.22 137.832 105.564
111.77 140.978 102.712
112.434 141.503 104.872
109.483 136.142 102.68
108.863 137.3 102.646
108.76 138.244 101.129
109.215 140.544 101.594
109.703 136.843 100.577
109.639 131.434 105.193
110.502 132.123 106.022
112.119 130.881 103.083
113.408 130.027 104.608
114.38 129.14 106.415
115.585 129.384 108.478
114.193 131.738 105.386
112.522 129.832 103.642
113.128 128.928 104.138
114.07 129.054 105.104
114.283 130.272 105.746
114.236 128.025 105.747
115.366 127.881 107.3
113.449 126.587 105.539
113.3 125.073 105.314
112.471 123.209 104.561
114.142 123.934 106.012
114.503 123.23 107.477
115.355 122.122 108.447
116.304 122.877 109.834
114.202 121.343 107.261
112.956 120.439 105.96
116.16 120.977 109.626
111.894 121.331 104.769
113.052 126.523 103.985
114.795 124.904 107.76
114.793 126.511 107.701
115.894 125.615 108.798
116.422 130.23 113.585
117.207 129.119 114.27
117.824 127.302 113.763
116.651 124.738 109.583
109.291 137.918 103.452
112.946 130.816 103.968
110.331 121.399 105.452
111.03 136.429 100.876
111.443 136.982 102.382
112.315 135.93 103.386
113.345 136.661 104.512
111.553 138.828 102.475
112.494 139.579 103.481
113.317 138.524 104.414
110.695 140.037 101.506
110.398 142.389 101.737
111.478 143.318 103.476
113.278 140.205 104.575
112.571 141.031 103.698
111.737 141.996 103.466
110.442 142.295 104.498
112.064 142.685 104.37
111.156 142.615 102.583
109.624 143.408 103.014
111.434 142.057 105.165
111.67 140.656 105.361
111.245 141.655 101.931
110.44 141.242 101.404
109.497 141.775 101.58
108.76 141.4 102.349
108.854 140.167 103.049
109.739 140.217 103.983
109.527 142.813 102.112
[...]
POINT_DATA 696
COLOR_SCALARS PointColorScalarData  3
0.0328953  -0.0211603  -0.0304111  
0.0141778  -0.00076761  0.0023382  
-0.0797122  -0.0202062  -0.0340389  
0.0635239  -0.030478  -0.00128503  
-0.027255  -0.0166367  0.0112686  
0.0277974  -0.0213292  0.00335641  
0.0318821  -0.00156313  -0.00816851  
-0.0284684  0.0466828  0.00873206  
-0.0365859  0.0251546  0.0279171  
-0.0171956  -0.0167465  -0.0209718  
-0.0374289  0.00321491  0.0154671  
0.0160806  -0.011153  0.0117502  
-0.00868543  0.0211231  0.00199892  
-0.0243934  0.0472899  -0.0193237  
-0.00753414  0.0156445  0.00150135  
-0.00895028  -0.0180079  0.00293897  
0.0354603  -0.0163902  0.00778245  
-0.01388  -0.0179995  -0.00859619  
0.0189433  -0.00514059  0.0134867  
0.0387153  -0.01906  0.00711635  
0.00117906  0.0209487  0.00351286  
0.0545075  -0.0240989  0.00326297  
0.0921713  -0.0328396  -0.0467149  
-0.0499234  -0.0534966  -0.0100482  
-0.0422725  0.0314176  0.0143876  
0.022837  -0.0255611  -0.00500253  
0.0346198  -0.00836504  0.00362112  
0.0628246  -0.00977927  -0.0106048  
0.0266677  -0.0272466  -0.0106782  
0.0270668  -0.0152803  0.00931988  
0.0192888  -0.0207692  0.00482065  
-0.0114213  -0.00964355  0.0134116  
0.0464331  -0.0206297  0.00548879  
0.043905  -0.0141124  0.00628455  
0.0470509  -0.025364  0.0011325  
0.0535687  -0.0271404  0.00174888  
0.0704246  -0.0345774  -0.0099266  
0.0125792  0.00531762  0.0140601  
0.0333412  -0.0218497  0.00557859  
0.0183384  -0.0176394  -0.000268221  
0.00558232  -0.00357286  0.00618599  
0.00754246  -0.00807527  -0.0010307  
0.0159564  -0.0204148  -0.0159219  
0.0659369  -0.0309812  0.00138997  
0.0695435  -0.0295124  -0.000645669  
0.0715789  -0.0343685  -0.00301483  
0.0228897  -0.0157939  -0.000117502  
-0.00591283  -0.0205406  0.00062222  
0.0227209  -0.00954025  0.0107864  
0.00164777  0.00244819  0.016143  
0.0813462  -0.0339962  -0.00638984  
0.0863203  -0.0250783  -0.00250273  
0.0361616  0.0197407  0.0101799  
-0.00896502  0.00637213  0.0148539  
-0.0255837  0.0281204  0.0353313  
0.0304152  -0.0448876  -0.0108927  
-0.00495897  0.0402282  0.0105371  
-0.0186314  0.0131945  0.0248792  
-0.0403434  0.0467078  0.0160139  
0.000226954  -0.0193701  0.00467013  
-0.0151568  0.0278007  0.0172358  
-0.0269571  0.0449964  0.00525644  
-0.0248731  0.0218371  0.0231097  
0.0394915  -0.0148732  0.00725279  
0.028829  -0.00590532  0.00872684  
0.0189721  0.00610661  0.00841408  
0.0240269  -0.000472549  -0.00118822  
0.0170604  0.00098582  -0.016394  
0.0371988  -0.0198197  -0.00295956  
0.0332746  -0.0318727  -0.0241996  
0.077701  -0.027544  -0.012187  
0.0208273  -0.0122803  -0.0216177  
-0.0292962  0.0177526  -0.0122933  
0.0104923  0.023144  0.0148875  
0.0200579  -0.0166196  0.00889733  
-0.00207366  -0.0116589  0.0126194  
-0.0635593  0.0354613  0.0266224  
-0.00512016  0.0321261  0.0117555  
0.028891  0.0035942  -0.013639  
0.00742947  -0.0165496  -0.00965489  
0.0381501  -0.0172357  -0.0059272  
0.0332196  -0.0106399  -0.0119734  
-0.00201881  0.0174558  -0.0121873  
-0.00187138  0.0403582  -0.0200138  
0.0559048  -0.0240131  0.00231459  
-0.0962884  0.0423444  0.0311505  
-0.059862  0.00602325  0.0192589  
-0.0728219  0.0281281  0.0282426  
-0.0319659  0.0378311  0.0205298  
0.0430703  0.0138341  -0.0098825  
-0.059905  -0.0347923  -0.0325161  
0.0624005  -0.0299787  -0.031282  
0.0159922  0.00224586  -0.00448615  
-0.0310417  0.0153141  0.01291  
-0.0368623  0.0387126  0.00721608  
0.0435371  -0.0102287  -0.0322394  
0.0797924  -0.0415346  -0.0509957  
0.012585  -0.0238606  -0.00104349  
0.0265224  -0.024303  -0.019773  
-0.0204723  -0.019213  -0.0112785  
-0.0244473  -0.00360149  -0.0157614  
-0.0173104  0.0106063  -0.00229037  
-0.011144  -0.00668207  -0.00742719  
0.0655767  -0.00166489  0.00378123  
0.0236431  0.0198217  0.00454536  
-0.0239472  0.00673961  0.0149683  
-0.0473391  0.0189338  0.0118038  
-0.00540468  0.00805825  0.0028248  
0.0433333  -0.0340686  -0.00214292  
0.0215388  0.0202259  0.00571498  
-0.0133789  -0.00203818  -0.00282473  
0.012913  -0.00204848  -0.0092908  
0.00578751  0.00930497  -0.00620031  
0.00385431  0.00544265  0.00173685  
-0.0232312  -0.0227976  0.00268924  
-0.0813012  0.03409  0.0555256  
-0.0266257  -0.0425508  -0.0338873  
-0.0460519  -0.0160317  -0.00740292  
-0.0655899  0.0394368  0.050413  
0.0851525  0.00255566  -0.0209584  
0.00335871  -0.0520965  -0.0273306  
0.0193748  0.0156238  0.0010829  
0.0211338  -0.0194544  -0.0189874  
0.0145049  0.0150607  -0.00403494  
0.00320528  0.0171665  -0.0045383  
0.0402069  -0.00739962  -0.0262513  
0.0294051  -0.016974  -0.0192458  
-0.0155292  0.00226276  0.0121308  
-0.00338332  0.0317078  0.0210808  
0.0445854  -0.0157817  -0.0423602  
0.0716314  -0.0268279  -0.0437714  
0.0491528  -0.0161033  -0.0276444  
0.00422648  0.00150071  -0.00287986  
-0.0623506  0.0196203  0.0411273  
-0.0244552  -0.00329561  0.0237613  
-0.0871378  0.0341451  0.0727387  
0.036864  -0.00525075  -0.00992331  
0.0752458  -0.0172569  -0.0521112  
0.0274417  -0.0231472  -0.0141009  
-0.0728357  -0.000217975  0.009986  
0.0311261  -0.0251875  -0.0494469  
0.0847558  -0.0489406  -0.0422381  
0.0519621  -0.0278803  -0.0175949  
-0.0191241  0.0276888  0.00180945  
0.0411848  0.00365854  0.00899871  
-0.00165104  0.0290553  0.0138633  
-0.00913686  0.0409479  0.0187757  
-0.00360339  0.0343128  0.0232115  
-0.00736034  0.030047  0.00344052  
-0.0320333  -0.0047493  -0.0166017  
-0.00774649  0.0107319  0.0232173  
0.0524038  0.00633587  -0.0163728  
-0.0234186  0.0102713  0.0438703  
0.105867  -0.0324527  -0.0396486  
0.0370717  -0.0348919  -0.0285104  
0.00372679  0.0173241  -0.0333631  
0.0277181  0.0005596  -0.0267133  
0.0442478  -0.0461633  -0.0159136  
0.0188734  -0.0287291  0.00847737  
0.0449478  -0.0332831  -0.0165947  
0.0282379  -0.00778558  0.00416853  
0.0337534  -0.0163631  -0.0153046  
-0.0118041  0.0169328  0.0155124  
-0.0109078  -0.0200866  0.0120897  
-0.0109194  0.0228064  0.00797401  
0.0285382  -0.00416235  -0.0134531  
0.00603713  0.00103728  0.0031083  
-0.0212731  0.0128916  0.0154852  
-0.0419948  0.0153161  0.0185918  
-0.0284425  0.00529948  0.00996777  
-0.0470983  0.0163623  0.0175379  
-0.0318867  0.0124595  0.0128721  
-0.00764317  0.00799812  0.00600798  
-0.0325405  0.0174091  0.00769841  
-0.029895  0.0155865  0.0043831  
-0.000576051  -0.000876005  0.00355201  
0.0430289  -0.0130649  0.00286752  
-0.0292572  0.0191952  0.0309691  
0.0121991  -0.00106518  0.00814391  
0.022783  -0.0167677  -0.00473992  
0.0784928  -0.033383  -0.0168939  
0.0186773  -0.0413765  -0.0404827  
-0.0234681  -0.0405759  -0.0599034  
-0.00146002  0.0109533  0.0121049  
-0.026675  0.0114823  0.0231875  
-0.00128184  0.00393418  -0.00864192  
-0.077109  -0.0311507  -0.0364554  
-0.0154514  0.00832648  -0.000681892  
0.0938285  -0.0425147  -0.055042  
-0.00720261  -0.00179652  -0.00635366  
0.0150397  -0.00147059  0.0153282  
-0.0346084  -0.0142785  -0.00118065  
-0.118908  -0.00715073  0.0222107  
0.00984961  -0.00707475  0.00309116  
0.0352982  -0.0118008  -0.00655019  
-0.0122908  0.00409254  0.010818  
0.0430154  -0.0070031  -0.0157896  
0.0341093  0.00475009  -0.0241934  
0.0153981  0.0188929  -0.0282071  
0.0289724  0.0100564  -0.018118  
0.00833799  0.0268161  -0.00705102  
0.00954046  0.00586867  0.00419671  
0.0107498  -0.0176494  -0.00457826  
-0.0250579  0.00492749  0.00798286  
-0.0269965  -0.00496769  -0.0171179  
-0.0520979  -0.0403816  -0.0112712  
-0.069736  0.0243333  0.0405795  
-0.0294246  0.0394024  0.0358974  
-0.0865915  0.0637626  0.0743679  
0.0288295  -0.00766152  -0.0253983  
0.0504848  -0.0280221  -0.0367824  
-0.0865561  0.0007056  0.0656827  
0.0886194  -0.0297819  -0.0417849  
-0.0825799  -0.0215422  0.024493  
-0.0782394  0.0548591  0.0665457  
-0.0369152  -0.0100222  0.0127233  
0.0319418  0.00504904  -0.0273671  
-0.123516  0.0178507  0.0752405  
-0.00473602  0.00709605  -0.00980565  
-0.0946636  0.0561178  0.0706332  
-0.0553601  0.0522537  0.0574531  
0.0425862  0.00292072  0.00158638  
0.0556147  -0.0195875  -0.0253154  
-0.0283016  -0.04207  -0.0390257  
0.0203482  -0.0402816  -0.00778278  
0.016965  0.0305049  0.00207265  
0.00598231  0.0393538  0.00751572  
0.0360473  0.0196314  -0.012332  
0.0800966  -0.0235336  -0.0327241  
-0.00176612  0.0250026  0.00240057  
-0.0256138  0.0273876  0.00279324  
-0.0200456  0.0186698  -0.00532074  
-0.0168275  -0.00352573  -0.0167141  
-0.0223517  -0.0315371  -0.0317637  
-0.00994762  0.0369324  0.00791441  
-0.00389906  0.040328  0.0158967  
0.000693772  0.0343125  0.0108449  
-0.0110149  0.0475704  0.0212105  
-0.00883843  0.039364  0.0215903  
-0.00549172  0.0174156  0.0212836  
-0.0255748  0.0598577  -0.00438358  
-0.0281137  0.0589939  -0.0189227  
-0.00206512  0.0285235  0.011432  
0.00529596  0.0189635  0.0136776  
0.0202225  0.00262402  0.0122911  
-0.0132279  0.0270104  0.0193505  
0.0157453  0.0122907  -0.00375811  
-0.0540977  0.00392188  0.016496  
-0.0798373  0.0220872  0.041958  
0.00444816  0.0282981  0.018109  
-0.0283916  0.00718635  -0.00510157  
-0.0432715  -0.0170842  -0.016502  
-0.0326867  -0.0102153  -0.00351896  
0.017983  -0.011657  -0.00714099  
0.0319658  -0.00072588  -0.0109115  
0.0553343  -0.016978  -0.0195319  
-0.0449406  -0.0283827  -0.0289282  
-0.0444533  -0.0401509  -0.0403931  
-0.0593518  -0.0438662  -0.0501874  
-0.0655836  -0.0222748  -0.0162258  
-0.06901  -0.0158251  -0.0108919  
-0.0367936  -0.00793307  0.00758178  
0.0105024  -0.01967  -0.000454129  
0.0505816  -0.040202  -0.0214893  
0.0806947  -0.0441828  -0.0365993  
-0.0703753  -0.0353126  -0.0347584  
-0.000231054  0.000123104  -0.000515644  
-0.000345799  0.00346777  0.0051731  
0.0161766  -0.0036906  -0.0333477  
0.0138568  0.0261149  0.0175487  
0.0639526  0.000307789  -0.0102305  
0.113778  -0.0197943  -0.0389875  
0.0987819  -0.0194679  -0.0292641  
0.107642  -0.0266037  -0.0387308  
0.0251916  -0.0250561  -0.0319291  
-0.0720249  -0.00547145  -0.0128824  
0.0028207  -0.00764931  -0.0353198  
-0.000934012  0.00192646  -0.0174366  
-0.0216857  -0.00550215  -0.0443328  
0.0928901  -0.0235168  -0.0283426  
0.0809198  -0.0243678  -0.0271586  
0.0323358  -0.0139803  -0.00875564  
0.0403967  -0.0218709  -0.0209382  
-0.0164531  -0.0204609  -0.0267296  
0.0981859  -0.022288  -0.0418688  
0.0292641  -0.00213745  -0.000117901  
0.0784918  -0.0307069  -0.0389114  
-0.0168043  0.0201798  0.0265545  
-0.0100191  0.0302786  0.031909  
0.0505991  -0.0175118  -0.023661  
0.011897  -0.0171548  -0.0177395  
0.0249361  -0.0174797  -0.0158263  
-0.0133399  -0.0271164  -0.0136036  
-0.0718126  -0.0390501  -0.00619448  
-0.0199994  -0.0143932  -0.0158417  
-0.00687545  -0.0358621  -0.0418889  
-0.0582126  -0.0148026  0.0208391  
-0.121233  -0.00274086  0.0673466  
-0.111867  -0.00338261  0.0539274  
-0.112696  -0.00175143  0.0423707  
-0.143144  0.0105015  0.0556788  
-0.035126  0.00269261  0.0504293  
-0.112317  0.00128962  0.00726446  
-0.108745  0.0166429  0.071471  
0.0666258  0.0157473  -0.0263104  
-0.0886955  -0.00107679  0.0303421  
0.0959771  -0.00030548  -0.0444398  
0.014956  0.0214151  0.0485554  
-0.0978346  -0.0220592  0.0209784  
0.0746308  -0.0249436  -0.0260426  
0.0442753  -0.0189901  -0.0134308  
-0.0119578  0.000545414  0.0283585  
-0.0225249  0.00736162  0.0187721  
0.0403075  0.0203698  -0.000548149  
-0.00142305  0.019086  0.00681063  
-0.0539078  0.0298036  0.0348928  
-0.0503917  -0.0272835  -0.0469678  
0.0678823  -0.00874706  -0.031825  
0.0374567  -0.025345  -0.0389668  
-0.0131255  -0.0170263  -0.0223811  
0.0038369  -0.00462253  -0.0162944  
0.0340495  0.00784838  -0.0149735  
-0.00292362  -0.0339594  -0.038726  
0.024809  -0.0180712  -0.0256492  
0.00426611  -0.00585959  -0.00418125  
-0.0196758  -0.0122412  -0.0218888  
-0.0533486  -0.00252906  -0.0190844  
-0.0724141  -0.00195022  -0.024984  
-0.0274437  0.00313467  -0.00937379  
0.000849358  0.0029961  0.00242996  
-0.0364139  -0.0152244  -0.0166743  
-0.0172805  0.00105663  -0.0275473  
0.0261141  0.000644886  -0.0445179  
0.0148  0.0133935  -0.018176  
0.0545903  0.00243693  -0.0505568  
-0.0867819  -0.00682498  0.000652235  
-0.0996553  -0.00185669  -0.00228665  
-0.0886874  -0.00228965  -0.0154903  
-0.0543333  -0.00309438  -0.0204688  
-0.100909  0.0058559  0.0225581  
-0.121284  0.000430609  0.0185962  
-0.133458  0.00642191  0.0337236  
-0.133104  0.0119243  0.0533596  
-0.131986  0.0172334  0.0716898  
-0.0913494  0.0216973  0.0776265  
-0.0348263  0.0174383  0.063614  
0.0342397  -0.00203008  0.0247912  
-0.0938934  0.0164579  0.0797487  
-0.00183463  0.0176959  0.0417391  
0.00608842  0.00398837  -0.00741343  
0.101959  0.0141169  -0.0372338  
0.068551  0.0257348  -0.011516  
-0.0903929  0.00937948  0.0391635  
-0.0842572  0.00566199  0.0538123  
-0.00313812  -0.0108708  0.0114501  
0.053316  -0.0138788  -0.00152857  
0.023302  -0.00914868  -0.0231752  
-0.0601442  -0.0164934  -0.00354449  
-0.046163  -0.0109249  0.007086  
0.0158667  0.00255637  -0.02489  
0.0573645  -0.00529144  -0.0318218  
0.0884766  -0.0125442  -0.0408315  
0.0951544  -0.0142113  -0.0519986  
0.0548539  -0.00521958  -0.0397772  
0.0301547  -0.000515049  -0.0213986  
0.0393475  -0.0045821  -0.0196703  
0.061793  -0.0123389  -0.0348639  
0.0778348  -0.0119768  -0.0450566  
0.0582303  -0.0107566  -0.0243794  
0.0690602  -0.0148728  -0.03842  
0.0188113  0.00136387  0.0119315  
-0.0269861  0.0137556  0.0437284  
-0.0591776  0.0237247  0.0708041  
-0.0520059  0.027263  0.056916  
-0.0747629  0.0333785  0.056697  
-0.0584536  0.0282518  0.0413913  
-0.0251045  0.0175798  0.0157928  
-0.0875367  0.0359093  0.0652761  
-0.0889065  0.0349485  0.0690578  
-0.00630292  0.00250296  0.00608356  
-0.071959  0.0218869  0.0617905  
-0.00175698  0.00516845  0.0207516  
-0.0307991  0.0235864  0.032992  
0.028994  0.00864325  0.00194258  
0.00405271  0.0142061  0.00516553  
-0.0370566  -0.0368585  -0.0296776  
-0.0419186  -0.0335985  -0.0185931  
-0.0185397  -0.00914347  -0.0031681  
-0.00307338  0.0111368  0.00136874  
-0.0676955  0.0128774  0.0649354  
0.041567  0.000131839  -0.02944  
-0.043216  -0.00814963  0.0063251  
0.0792856  -0.00451009  -0.0551006  
0.0560131  0.0108659  -0.0284068  
0.0280405  0.0155998  -0.0182154  
0.0206547  0.0134778  -0.0116574  
0.098546  0.0111794  -0.0369818  
0.100096  0.0166692  -0.0371526  
0.0622181  0.0137038  -0.0247693  
0.103242  -0.000488525  -0.0363096  
0.0526734  -0.00562705  -0.0140865  
0.0278291  0.0206561  -0.00502615  
0.0810659  0.0184142  -0.029983  
0.0943287  0.0213107  -0.0349993  
0.071665  0.0199427  -0.0205283  
0.0417063  0.0161185  0.0174078  
0.0502136  0.0282214  -0.00974973  
0.0523572  0.00997098  -0.0161541  
0.0128973  -0.00767365  0.0115928  
0.0513633  0.0255282  0.0109541  
0.0461794  0.0232032  0.0209016  
0.0874288  0.00578702  -0.0326308  
0.0848086  -0.00565979  -0.0268689  
0.0531908  -0.016775  -0.00634585  
0.0346674  -0.0170809  0.0153798  
0.0100065  -0.0019868  0.0390083  
0.0192769  0.0121258  0.0415104  
0.0288626  -0.015708  0.00250792  
0.0412824  0.020883  0.0309327  
0.0387342  0.0127813  0.0291751  
0.0144951  -0.00228251  0.000894844  
-0.0107032  0.00805953  0.0134085  
0.0704475  0.00433273  -0.0287372  
0.0955105  -0.016348  -0.0399329  
-0.102622  -0.0293487  0.020146  
-0.100318  -0.00967154  0.0457567  
-0.0750303  -0.00995028  0.034587  
-0.0514518  -0.010919  0.00492227  
-0.0507197  -0.00899363  0.000266258  
-0.0186737  0.00191383  -0.00342662  
-0.0871642  -0.0275464  0.00191843  
-0.0593622  -0.0355226  -0.0199365  
-0.021671  0.00643991  0.0272349  
0.0387634  0.0101762  -0.0123272  
-0.00465337  0.0101724  0.00863373  
-0.0663933  -0.0322188  -0.00685175  
0.0545122  -0.0218687  -0.0254449  
-0.0109862  -0.00378999  -0.0157661  
0.0207881  0.00719203  -0.021908  
0.0259576  -0.000648931  -0.0210856  
0.0330995  -0.015495  -0.0377669  
0.0532209  -0.0199237  -0.0468166  
0.0495285  -0.0301944  -0.0577666  
5.39037e-05  -0.0350592  -0.0441704  
0.0862291  -0.0191972  -0.0562265  
0.0914202  -0.0204445  -0.0562167  
0.0179997  0.0082915  0.0150831  
0.0321109  0.000251436  0.0173137  
-0.0403173  0.0218946  0.0681895  
0.041147  -0.0166296  -0.00193885  
0.0699824  -0.0288303  -0.00992149  
0.0664319  -0.0274443  -0.0155031  
0.0335826  -0.00974841  -0.00450246  
0.0432423  -0.0185617  -0.0272609  
0.0596182  -0.0293988  -0.00994998  
0.0563595  -0.0317676  -0.0174556  
0.0394772  -0.0366604  -0.0288201  
0.0652857  -0.0388516  -0.0305262  
0.044699  -0.0391346  -0.0412828  
0.0306262  -0.0346594  -0.0485688  
0.0148007  -0.0341865  -0.0637299  
-0.00980098  -0.0426736  -0.0520999  
0.0796706  -0.0345938  -0.0243224  
-0.0478194  -0.0369133  -0.0632405  
-0.069583  -0.0354195  -0.0519667  
-0.0770023  -0.0157549  -0.0194897  
-0.0761047  0.0044873  0.00975482  
-0.0832639  0.00226311  0.00331626  
-0.0571579  0.00708412  0.027287  
-0.065676  0.0178347  0.0420093  
-0.0248018  -0.00775677  0.0147029  
-0.0741887  0.0379418  0.0662213  
0.021702  -0.00207421  0.0108019  
-0.0219738  0.0221562  0.0324735  
0.0158792  0.0061109  0.0142554  
-0.0633002  0.0421929  0.0533109  
-0.0689591  0.0378176  0.0502713  
-0.0278453  0.0133546  0.0205927  
-0.0481858  0.0219085  0.02988  
0.0377367  -0.0169733  -0.0326254  
0.0101786  -0.00950814  -0.0175338  
0.0352724  -0.0212843  -0.0361707  
0.0517865  -0.0212928  -0.0331041  
0.0377432  -0.0102874  -0.0217763  
0.0213491  -0.0147432  -0.0143344  
-0.00972626  -0.0421167  -0.0171766  
0.0226754  -0.0132685  -0.0161719  
-0.0215735  0.0113071  0.0344898  
-0.0168675  0.00553788  0.0307903  
0.00926034  0.0151986  -0.0124953  
-0.00113138  0.0185722  -0.00943565  
0.0415501  0.0054831  -0.0253888  
-0.0475192  0.0386122  0.0119682  
-0.0796768  0.0484746  0.0239059  
-0.0743491  0.0423023  0.0282756  
-0.0400314  0.0369853  0.0191777  
-0.0687001  0.0489278  0.0203108  
-0.0154341  0.0372434  0.00143129  
-0.091047  0.0407554  0.0318103  
-0.0809376  0.0250157  0.0272145  
-0.0572222  0.0205241  0.0242501  
-0.0211462  0.0196222  0.0175504  
-0.00992006  0.000433351  0.0123468  
0.03314  -0.0186633  0.00740059  
-0.0134456  0.0268795  0.00870448  
-0.0850212  0.0418277  0.0280259  
-0.0755902  -0.029318  0.0067313  
-0.0714021  0.0157365  0.0398277  
-0.052596  -0.00093171  0.0258758  
-0.0854273  0.0415141  0.0597882  
-0.0833157  0.0594087  0.0717742  
-0.0643699  0.049177  0.0598701  
-0.0571927  0.0210557  0.040361  
-0.0299464  0.0323539  0.0380306  
-0.0323488  0.0569977  -0.00579441  
-0.0578802  -0.0704406  -0.024082  
-0.0334666  -0.0676532  -0.0254167  
-0.0204686  -0.0858622  -0.0371106  
0.00325194  -0.0791411  -0.0397755  
-0.0389167  -0.0369252  -0.00707953  
0.00498358  -0.0633901  -0.0329786  
0.0434116  -0.00344775  -0.00996317  
-0.012506  0.000721945  -0.0203392  
-0.0296643  -0.0455265  -0.0400685  
-0.0392294  -0.0449436  -0.0356567  
-0.0626561  -0.0421479  -0.0216211  
-0.125273  0.00973138  0.0749355  
-0.136124  0.00699185  0.0679672  
0.0240862  -0.0162688  -0.00120534  
0.0116079  -0.00579568  0.00321513  
0.00280575  0.00262531  0.00312279  
-0.00459252  0.00224956  -0.00016866  
-0.000960159  0.0166244  0.00224544  
0.00517586  0.0188409  -0.000545828  
-0.00486943  0.0138858  0.00351543  
-0.0170307  0.0131065  0.00469783  
-0.0247766  0.0171403  0.00253221  
-0.00944606  0.0168671  -0.00153212  
0.0248286  -0.0130345  0.000428833  
0.0289911  -0.0189966  -0.00480853  
0.0394446  -0.0136769  -0.00817011  
0.0263805  -0.00904907  -0.00270429  
0.0465393  0.0184293  0.00273213  
0.00898831  0.00865992  0.011119  
-0.0239846  -0.0100711  0.0108612  
-0.0324932  0.00231458  -0.023528  
0.0276698  -0.00568904  -0.0517117  
0.0344574  -0.00306765  -0.0126889  
0.00892432  0.00929358  0.00770009  
0.00990184  -0.0153647  -0.0083549  
0.0697923  -0.00795803  -0.0319954  
0.00349687  -0.0129585  -0.0179563  
0.0128753  -0.00946595  -0.0111494  