# vtk DataFile Version 3.0
vtk output
ASCII
DATASET UNSTRUCTURED_GRID
POINTS 687 float
5 7 10 5 7 10 5 8 11.25 
5 8.25 11 5 8 10 5 7 11.25 
5 7.5 13 5 8 12.5 5 7 10.3125 
5 7 10.625 5 7 10.9375 5 7.38766 11.25 
5 7.64592 11.25 5 7.80052 11.25 5 7.90878 11.25 
5 8.01755 11.158 5 8.07322 11.0732 5 8.15798 11.0176 
5 8.25 10.1644 5 8.25 10.3763 5 8.25 10.5485 
5 8.25 10.6871 5 8.25 10.8026 5 8.25 10.9045 
5 7.74324 10 5 7.41786 10 5 7 11.6875 
5 7 12.125 5 7 12.5625 5 7.30926 13 
5 7.68405 12.9649 5 7.85355 12.8536 5 7.96489 12.684 
5 8 12.3065 5 8 12.1233 5 8 11.9567 
5 8 11.8086 5 8 11.6771 5 8 11.5591 
5 8 11.4509 5 8 11.3489 5 7.93205 11.0425 
5 7.80734 11.0245 5 7.67859 10.99 5 7.51824 10.9746 
5 7.32515 10.9611 5 8.01086 10.2002 5 8.03769 10.3933 
5 8.06323 10.5667 5 8.09469 10.7162 5 8.13242 10.8231 
5 8.14712 10.922 5 7.39469 10.6822 5 7.65901 10.6508 
5 7.8705 10.6089 5 7.93308 10.788 5 7.93412 10.9257 
5 7.7282 10.8379 5 7.82322 10.9294 5 7.54704 10.8316 
5 8.04809 10.9431 5 8.03786 10.8514 5 7.44218 10.3424 
5 7.75573 10.2431 5 7.82664 10.4299 5 7.64261 10.4744 
5 7.91347 11.1466 5 7.79547 11.136 5 7.66053 11.123 
5 7.52214 11.1159 5 7.44943 11.7066 5 7.68075 11.6735 
5 7.84745 11.667 5 7.40022 12.1904 5 7.64784 12.1371 
5 7.83294 12.1302 5 7.85639 12.4875 5 7.71852 12.5169 
5 7.5621 12.5627 5 7.35291 12.6213 5 7.84497 12.3142 
5 7.69057 12.3325 5 7.55096 12.3619 5 7.62604 12.7508 
5 7.76505 12.6851 5 7.86211 12.6189 5 7.49298 12.7907 
5 7.85524 11.8031 5 7.83896 11.9463 5 7.6677 11.8951 
5 7.73456 11.7906 5 7.8089 11.3764 5 7.85382 11.5144 
5 7.6916 11.5296 5 7.67156 11.3874 5 7.56029 11.5433 
5 7.53983 11.3935 5 7.90972 11.3537 5 7.92118 11.4397 
5 24 8 5 24 9 5 19.75 8 
5 16 9 5 16 11 5 11.25 9 
5 11.25 11 5 8.25 9.923 5 0 13 
5 0 10 5 7 13 0 8.1543 11.019 
0 8.07322 11.0732 0 8.01904 11.1543 0 8 11.25 
2.5 8.25 11 2.5 8.15432 11.019 2.5 8.07324 11.0732 
2.5 8.01903 11.1543 2.5 8 11.25 5 8.15434 11.019 
5 8.01902 11.1543 0 7.96192 12.6914 0 7.85355 12.8536 
0 7.6914 12.9619 2.5 8 12.5 2.5 7.96192 12.6914 
2.5 7.85355 12.8536 2.5 7.6914 12.9619 2.5 7.5 13 
5 7.96192 12.6914 5 7.6914 12.9619 0 24 9 
0 24 8 0 16 9 0 16 11 
0 0 10 0 0 13 0 8.25 11 
0 8 12.5 0 7.5 13 0 26 8 
7 26 8 7 24 8 7 19.75 8 
7 16 9 7 11.25 9 7 8 10 
7 0 10 7 -2 10 0 -2 10 
0 0 -11 0 0 -8 0 -2 -8 
5 -2 -8 7 -2 -8 5 0 -8 
5 0 -11 5 8 -11 5 8 -8 
7 8 -8 5 11.25 -11 5 11.25 -9 
7 11.25 -9 5 16 -11 5 16 -9 
7 16 -9 5 19.75 -11 5 19.75 -10 
7 19.75 -10 0 24 -11 0 24 -10 
5 24 -10 5 24 -11 0 26 -10 
5 26 -10 7 26 -10 0 -12 -4 
0 -12 4 0.59691 -12 -3.95521 1.23343 -12 -3.80508 
1.86684 -12 -3.53764 2.4031 -12 -3.19767 2.82877 -12 -2.82808 
3.32044 -12 -2.2304 3.73551 -12 -1.43038 3.93533 -12 -0.71638 
3.99986 -12 0.03336 3.92368 -12 0.77765 3.70276 -12 1.51312 
3.35693 -12 2.17509 2.89656 -12 2.75861 2.35395 -12 3.23403 
1.75721 -12 3.59335 1.15512 -12 3.82958 0.56093 -12 3.96047 
0 36 4 0 -10.743 4 0 -8.8877 4 
0 -6.64749 4 0 -4.45202 4 0 -0.91936 4 
0 4.14518 4 0 6.58748 4 0 9.66416 4 
0 12.0556 4 0 14.4989 4 0 17.6266 4 
0 20.3196 4 0 24.9607 4 0 29.4472 4 
0 31.7102 4 0 33.6144 4 0 35.0694 4 
0 36 -4 0.59993 36 3.95476 1.23847 36 3.80344 
1.87132 36 3.53528 2.4058 36 3.19564 2.82825 36 2.8286 
3.31559 36 2.2376 3.73171 36 1.44025 3.93289 36 0.72964 
3.99999 36 0.00729 3.93339 36 -0.72693 3.7303 36 -1.44391 
3.33354 36 -2.21076 2.85148 36 -2.80519 2.28639 36 -3.28214 
1.63682 36 -3.64977 1.11455 36 -3.84158 0.56461 36 -3.95995 
0 34.661 -4 0 32.5627 -4 0 29.9725 -4 
0 27.9548 -4 0 24.936 -4 0 20.302 -4 
0 17.5542 -4 0 14.3512 -4 0 11.9689 -4 
0 9.52824 -4 0 6.40852 -4 0 3.7104 -4 
0 -0.45165 -4 0 -4.9424 -4 0 -7.504 -4 
0 -9.50153 -4 0 -11.0253 -4 0 2.06879 -4 
0 1.24817 -4 0 0.49795 -4 0 2.22891 4 
0 0.81573 4 0 -0.2654 4 0 21.9979 -4 
0 23.2408 -4 0 24.3368 -4 0 21.9532 4 
0 23.1639 4 0 24.2218 4 0 -2.85941 -4 
0 -1.4497 -4 0 -2.71248 4 0 -1.53432 4 
0 26.5263 -4 0 25.5061 -4 0 27.2927 4 
0 25.7706 4 2.28036 11.9291 -3.28633 1.91748 7.67834 -3.51045 
1.39183 4.80584 -3.75004 3.10004 4.74612 -2.5278 3.99902 4.81728 0.08855 
3.99929 11.9788 0.07526 3.01126 4.7799 2.63293 1.3206 4.94069 3.77571 
1.85925 7.75999 3.54164 2.26005 12.0455 3.30033 4 19.1687 0.00563 
3.05144 19.2212 -2.58625 1.3639 19.1697 -3.76029 1.9216 16.2623 -3.5082 
1.88377 16.3456 3.52866 1.37297 19.2307 3.75698 3.06558 19.3026 2.56948 
0.86913 -9.0538 -3.90444 1.36253 -6.45576 -3.76079 2.03706 -9.19679 -3.44244 
3.04279 -9.69606 -2.59642 3.11128 -6.58598 -2.51395 3.7595 -9.34266 -1.36607 
3.99985 -9.72826 0.03484 3.99986 -6.60452 0.03337 1.03898 -4.23036 -3.86271 
3.0157 -3.54152 -2.62784 2.05455 -4.03413 -3.43203 3.99994 -3.50264 0.0214 
3.74655 -3.86932 -1.40121 1.00023 2.98374 -3.87292 1.99481 2.63411 -3.46709 
2.98987 2.17564 -2.65719 3.74575 2.45304 -1.40334 3.9997 2.15958 0.04896 
3.72707 -9.3715 1.45222 2.9589 -9.71773 2.69164 3.0344 -6.63176 2.60623 
1.83862 -9.28024 3.55239 0.83367 -8.38579 3.91216 1.43719 -6.66098 3.73289 
2.82548 -3.41986 2.83137 3.71431 -3.8546 1.48454 0.80231 -4.99714 3.91871 
1.77296 -4.35265 3.58561 3.70922 2.45004 1.49723 2.93365 2.16411 2.71913 
1.91758 2.60035 3.5104 0.80755 2.87316 3.91763 0.98341 21.0045 -3.87723 
2.96254 21.8143 -2.68763 1.97163 21.3626 -3.48032 4 21.8263 -0.0017 
3.72906 21.5439 -1.4471 0.84747 28.4195 -3.90919 1.34399 31.0003 -3.76745 
1.95439 28.5374 -3.49004 2.87262 27.5375 -2.78353 3.07745 30.8031 -2.55525 
3.72995 27.9379 -1.4448 3.99996 27.5711 0.01726 3.99996 30.7106 0.01826 
1.04168 33.1935 -3.86198 3.05671 33.7806 -2.58002 2.08878 33.3701 -3.4113 
3.99999 33.7855 0.01071 3.75229 33.4182 -1.38575 2.97043 21.8482 2.67891 
3.73117 21.5642 1.44167 0.98998 21.028 3.87556 1.97903 21.3942 3.47613 
3.71189 27.9005 1.4906 2.82811 27.4453 2.82874 3.04412 30.7018 2.59487 
1.93597 28.3735 3.50029 0.86823 28.146 3.90463 1.3057 30.7039 3.78089 
3.02368 33.7595 2.61866 3.74268 33.397 1.41152 0.86284 33.1639 3.90583 
2.02665 33.2848 3.44858 0.53032 -10.5458 -3.96469 1.24149 -10.7951 -3.80246 
1.85972 -10.739 -3.54139 2.44302 -10.9691 -3.16728 3.06586 -11.1071 -2.56914 
3.48459 -10.8306 -1.96409 3.7465 -10.7956 -1.40133 3.93436 -10.9762 -0.72168 
3.99993 -10.9299 0.02358 0.54517 -3.49606 -3.96268 1.86409 -2.61933 -3.53909 
1.12497 -2.64827 -3.83855 2.9571 -2.35459 -2.69361 2.44919 -2.36751 -3.16251 
3.72692 -2.41852 -1.45261 3.39583 -2.27834 -2.11384 3.99998 -2.31918 0.01383 
3.93224 -2.2631 -0.73315 0.48601 2.25066 -3.97036 1.03264 1.61027 -3.86441 
1.64176 1.01027 -3.64755 2.37715 1.13073 -3.21701 2.91683 0.91806 -2.73717 
3.38248 1.09831 -2.13514 3.72047 0.97203 -1.46904 3.93264 1.103 -0.73102 
3.99992 0.92061 0.02526 3.92483 -10.9867 0.77183 3.71071 -10.8422 1.49354 
3.3623 -10.9829 2.16677 2.9046 -10.9215 2.75014 2.34975 -10.9585 3.23708 
1.73632 -10.8351 3.6035 1.08728 -11.0164 3.84939 0.76552 -9.85185 3.92606 
3.70832 -2.40724 1.49945 3.9251 -2.25836 0.77044 2.9009 -2.24119 2.75405 
3.3515 -2.23326 2.18344 2.02728 -2.75573 3.44821 2.48468 -2.05245 3.1347 
0.75188 -3.60736 3.9287 1.14269 -2.47261 3.83331 3.92189 1.10123 0.78663 
3.70058 0.96959 1.51845 3.351 1.09403 2.18422 2.88114 0.91095 2.77471 
2.33539 1.11346 3.24745 1.59742 0.95017 3.66719 0.99331 1.51146 3.87471 
0.55744 1.91642 3.96097 0.49282 21.7568 -3.96953 1.62708 22.9996 -3.65412 
1.03614 22.3695 -3.86347 2.91706 23.0854 -2.73692 2.36484 22.8705 -3.22607 
3.71028 23.0214 -1.4946 3.37648 22.8891 -2.14462 3.9999 23.0778 -0.02841 
3.92467 22.8842 -0.77261 0.51979 26.9399 -3.96608 1.2839 26.7399 -3.78835 
2.11377 26.9015 -3.39588 2.52051 26.1316 -3.10597 2.93463 26.3152 -2.71807 
3.36843 26.2864 -2.15724 3.71832 26.4622 -1.47449 3.92922 26.2994 -0.74917 
3.99998 26.3685 0.01184 0.55062 33.9394 -3.96192 1.97271 35.0239 -3.47972 
1.14169 34.811 -3.83361 3.08146 35.1197 -2.55042 2.58816 34.8824 -3.04982 
3.73846 34.839 -1.42265 3.48539 34.8596 -1.96266 3.99999 34.9623 0.00668 
3.93189 35.0007 -0.73504 3.72154 23.0373 1.46633 3.93176 22.8918 0.73573 
2.91935 23.0975 2.73448 3.38141 22.9046 2.13684 1.64466 23.007 3.64624 
2.37652 22.8746 3.21747 0.49487 21.7358 3.96927 1.0407 22.3613 3.86225 
3.92575 26.2931 0.76713 3.70601 26.448 1.50515 3.34197 26.263 2.198 
2.88063 26.2536 2.77524 2.47122 26.0537 3.14532 2.08148 26.8047 3.41576 
1.2917 26.6842 3.7857 0.68296 26.9319 3.94126 3.73438 34.8292 1.43333 
3.92972 34.9963 0.74652 3.0571 35.1329 2.57956 3.47547 34.8531 1.98018 
1.86379 34.7857 3.53925 2.44652 34.9947 3.16457 0.53235 34.5863 3.96442 
1.24874 34.8315 3.80009 0.52811 -1.66823 -3.96498 0.45204 -0.84639 -3.97438 
1.07292 -1.10687 -3.85342 1.78369 -1.62004 -3.58029 1.06326 -0.32748 -3.8561 
0.75907 -0.48267 -3.92732 1.56772 -0.81885 -3.67998 1.35017 -0.49395 -3.76524 
2.33715 -1.17613 -3.24619 2.91025 -1.38515 -2.74416 2.25846 -0.53158 -3.30142 
1.95131 -0.75918 -3.49176 2.87334 -0.66995 -2.78279 2.61278 -0.56887 -3.02876 
3.35142 -1.10734 -2.18357 3.71158 -1.36738 -1.49136 3.31205 -0.49745 -2.24284 
3.09024 -0.6604 -2.53977 3.69991 -0.6572 -1.52008 3.54448 -0.54599 -1.85383 
3.92279 -1.09408 -0.78213 4 -1.34705 -0.00312 3.9109 -0.48582 -0.83958 
3.81268 -0.64663 -1.20974 3.99995 -0.64705 -0.01926 3.98089 -0.53487 -0.39052 
0.35215 1.2147 -3.98447 0.60895 0.58968 -3.95338 1.09375 0.62285 -3.84756 
1.36124 0.41025 -3.76125 1.6086 0.31642 -3.6623 2.01162 0.35229 -3.45737 
2.34331 0.45551 -3.24174 2.63225 0.38019 -3.01185 2.89599 0.38569 -2.75921 
3.15088 0.35872 -2.46413 3.37306 0.45257 -2.15 3.5589 0.39074 -1.82599 
3.71344 0.41132 -1.48674 3.84224 0.37865 -1.1123 3.93218 0.46215 -0.73344 
3.98386 0.3871 -0.35896 3.99996 0.39629 0.01684 3.92995 -1.09117 0.7453 
3.70953 -1.35634 1.49646 3.93889 -0.48438 0.69651 3.98788 -0.64025 0.3112 
3.71222 -0.65148 1.48977 3.8347 -0.53622 1.13801 3.36409 -1.08533 2.16399 
2.90685 -1.3059 2.74777 3.38661 -0.48683 2.12859 3.57735 -0.64249 1.78958 
2.88925 -0.63887 2.76626 3.13069 -0.53105 2.48974 2.35752 -1.09709 3.23142 
1.80695 -1.5696 3.5686 2.29815 -0.43655 3.27391 2.65143 -0.62659 2.99499 
[...]
POINT_DATA 687
FIELD FieldData 2
displacement 3 687 float
0 0 0 0 0 -2 0 0 -2 
0 0 -2 0 0 -2 0 0 -2 
0 0 -2 0 0 -2 0 0 -2 
0 0 -2 0 0 -2 0 0 -2 
0 0 -2 0 0 -2 0 0 -2 
0 0 -2 0 0 -2 0 0 -2 
0 0 -2 0 0 -2 0 0 -2 
0 0 -2 0 0 -2 0 0 -2 
0 0 -2 0 0 -2 0 0 -2 
0 0 -2 0 0 -2 0 0 -2 
0 0 -2 0 0 -2 0 0 -2 
0 0 -2 0 0 -2 0 0 -2 
0 0 -2 0 0 -2 0 0 -2 
0 0 -2 0 0 -2 0 0 -2 
0 0 -2 0 0 -2 0 0 -2 
0 0 -2 0 0 -2 0 0 -2 
0 0 -2 0 0 -2 0 0 -2 
0 0 -2 0 0 -2 0 0 -2 
0 0 -2 0 0 -2 0 0 -2 
0 0 -2 0 0 -2 0 0 -2 
0 0 -2 0 0 -2 0 0 -2 
0 0 -2 0 0 -2 0 0 -2 
0 0 -2 0 0 -2 0 0 -2 
0 0 -2 0 0 -2 0 0 -2 
0 0 -2 0 0 -2 0 0 -2 
0 0 -2 0 0 -2 0 0 -2 
0 0 -2 0 0 -2 0 0 -2 
0 0 -2 0 0 -2 0 0 -2 
0 0 -2 0 0 -2 0 0 -2 
0 0 -2 0 0 -2 0 0 -2 
0 0 -2 0 0 -2 0 0 -2 
0 0 -2 0 0 -2 0 0 -2 
0 0 -2 0 0 -2 0 0 -2 
0 0 -2 0 0 -2 0 0 -2 
0 0 -2 0 0 -2 0 0 -2 
0 0 -2 0 0 -2 0 0 -2 
0 0 -2 0 0 -2 0 0 -2 
0 0 -2 0 0 -2 0 0 -2 
0 0 -2 0 0 -2 0 0 -2 
0 0 -2 0 0 -2 0 0 -2 
0 0 -2 0 0 -2 0 0 -2 
0 0 -2 0 0 -2 0 0 -2 
0 0 -2 0 0 -2 0 0 -2 
0 0 -2 0 0 -2 0 0 -2 
0 0 -2 0 0 -2 0 0 -2 
0 0 -2 0 0 -2 0 0 -2 
0 0 -2 0 0 -2 0 0 -2 
0 0 -2 0 0 -2 0 0 -2 
0 0 -2 0 0 -2 0 0 -2 
0 0 -2 0 0 -2 0 0 -2 
0 0 3.4 0 0 3.4 0 0 3.4 
0 0 3.4 0 0 3.4 0 0 3.4 
0 0 3.4 0 0 3.4 0 0 3.4 
0 0 3.4 0 0 3.4 0 0 3.4 
0 0 3.4 0 0 3.4 0 0 3.4 
0 0 3.4 0 0 3.4 0 0 3.4 
0 0 3.4 0 0 3.4 0 0 3.4 
0 0 3.4 0 0 3.4 0 0 3.4 
0 0 3.4 0 0 3.4 0 0 0 
0 0 0 0 0 0 0 0 0 
0 0 0 0 0 0 0 0 0 
0 0 0 0 0 0 0 0 0 
0 0 0 0 0 0 0 0 0 
0 0 0 0 0 0 0 0 0 
0 0 0 0 0 0 0 0 0 
0 0 0 0 -0.1941 0.780923 0 -0.315278 1.43698 
0 -0.369083 1.97847 0 -0.380153 2.30951 0 -0.289196 2.63675 
0 -0.09522 2.75056 0 -0.029711 2.72934 0 0.035083 2.7492 
0 0.03603 2.48902 0 0.04209 2.63425 0 0.077749 2.47344 
0 0.111881 2.39187 0 0.18755 2 0 0.234279 1.82884 
0 0.203369 1.4926 0 0.171352 1.04781 0 0.092011 0.515224 
0 0 0 0 0 0 0 0 0 
0 0 0 0 0 0 0 0 0 
0 0 0 0 0 0 0 0 0 
0 0 0 0 0 0 0 0 0 
0 0 0 0 0 0 0 0 0 
0 0 0 0 0 0 0 0 0 
0 0.05809 -0.644944 0 0.057369 -1.19612 0 0.056659 -1.51343 
0 0.03093 -1.63181 0 -0.039629 -1.72373 0 -0.15382 -1.67739 
0 -0.18676 -1.59311 0 -0.20987 -1.57624 0 -0.17839 -1.29755 
0 -0.150751 -1.43432 0 -0.143697 -1.26157 0 -0.137026 -1.15425 
0 -0.120528 -0.6 0 -0.017984 -1.06727 0 0.011427 -1.01365 
0 -0.004719 -0.789507 0 -0.00686 -0.413511 0 -0.139575 -1.02325 
0 -0.139324 -0.926758 0 -0.136517 -0.803434 0 -0.163081 2.75421 
0 -0.219848 2.72561 0 -0.264177 2.68019 0 -0.116769 -1.70363 
0 -0.086201 -1.72951 0 -0.056049 -1.73233 0 0.14147 2.30785 
0 0.16618 2.23075 -0 0.172491 2 0 -0.06426 -0.892653 
0 -0.137782 -0.6 0 -0.348512 2.52898 0 -0.31127 2.60065 
0 0.000439 -1.69593 0 -0.024559 -1.71964 0 0.226789 2.00393 
0 0.20265 2 1.27875 -0.1599 -1.05218 0.983473 -0.135883 -1.03497 
0.721793 -0.132643 -1.07408 1.62534 -0.106518 -0.478522 2.08138 -0.085304 0.825568 
2.02657 -0.06362 0.628233 1.57251 -0.075276 2.09028 0.682918 -0.072622 2.63354 
0.947243 -0.010623 2.4634 1.25574 0.02225 2.25679 2.12691 -0.030491 0.3958 
1.63573 -0.1208 -0.92743 0.725861 -0.160219 -1.51643 0.993938 -0.178131 -1.28628 
0.977686 0.049469 2.24962 0.729458 0.09004 2.29715 1.6409 0.052059 1.70133 
0.238853 0.00019 -0.845814 0.563157 -0.011618 -0.982737 0.566891 -0.013241 -0.727518 
0.721872 -0.057949 -0.434856 1.28016 -0.073164 -0.529489 1.03204 -0.096269 -0.154517 
0.958578 -0.15024 0.192227 1.64266 -0.194563 0.462506 0.458468 -0.040062 -0.95051 
1.35036 -0.098079 -0.438011 0.930748 -0.05803 -0.81145 1.77955 -0.202432 0.684425 
1.69556 -0.14641 0.045618 0.498665 -0.132181 -1.03625 1.00773 -0.115971 -0.858897 
1.47392 -0.107968 -0.437416 1.87562 -0.105177 0.139597 1.95539 -0.122903 0.843437 
1.03265 -0.202209 0.613231 0.720561 -0.236751 0.843198 1.25655 -0.311831 1.46241 
0.524704 -0.280853 1.23961 0.271437 -0.323902 1.55285 0.580919 -0.360073 1.84364 
1.276 -0.315544 1.91102 1.68074 -0.266575 1.30073 0.35634 -0.378688 2.20474 
0.809878 -0.361928 2.16959 1.84991 -0.126075 1.54536 1.44007 -0.150697 2.11916 
0.969793 -0.141213 2.53603 0.40726 -0.138111 2.72225 0.509594 -0.134319 -1.61494 
1.50425 -0.07407 -1.02318 1.0308 -0.115881 -1.44302 2.01087 0.01699 0.316527 
1.91486 -0.04101 -0.404783 0.389212 0.03956 -1.57751 0.544421 0.06246 -1.33148 
0.893736 0.04865 -1.39646 1.32751 0.052599 -1.08616 1.26166 0.0884 -0.898884 
1.72094 0.092642 -0.494184 1.81779 0.1267 0.177484 1.65028 0.141409 0.106615 
0.278819 0.071559 -0.995378 0.709932 0.091701 -0.567912 0.558719 0.071041 -0.879663 
0.93961 0.124951 0.038786 1.01176 0.101421 -0.328094 1.50953 0.09924 1.65089 
1.917 0.05361 1.05195 0.512501 0.11989 2.28511 1.03402 0.11186 2.09384 
1.72114 0.169119 0.838989 1.31708 0.19965 1.45507 1.27011 0.19561 1.12767 
0.896929 0.22205 1.71558 0.403746 0.231541 1.90384 0.547979 0.218429 1.58109 
0.724184 0.153679 0.668914 1.02691 0.139488 0.425778 0.241608 0.178737 1.15522 
0.571349 0.167313 1.01953 0.086517 -0.01267 -0.555523 0.182553 -0.00425 -0.481683 
0.269157 -0.02909 -0.429019 0.321307 -0.02195 -0.341119 0.347243 -0.0426 -0.221197 
0.510388 -0.05262 -0.198838 0.54388 -0.07776 -0.113838 0.536107 -0.07055 -0.020523 
0.529974 -0.10652 0.084707 0.243639 -0.048665 -0.937576 0.847092 -0.078737 -0.74235 
0.517205 -0.078064 -0.842523 1.35189 -0.102464 -0.416289 1.12963 -0.089101 -0.611733 
1.70342 -0.141903 0.099495 1.57374 -0.12008 -0.186287 1.82215 -0.191931 0.743179 
1.81749 -0.166259 0.415851 0.239399 -0.137006 -1.03144 0.505744 -0.12692 -0.949684 
0.792013 -0.112364 -0.81003 1.15717 -0.107079 -0.654102 1.41052 -0.106979 -0.433853 
1.64743 -0.109725 -0.173276 1.7991 -0.1185 0.13842 1.90955 -0.126951 0.479013 
1.92694 -0.142616 0.832836 0.540504 -0.10165 0.181674 0.536092 -0.13973 0.305984 
0.46885 -0.12887 0.384496 0.395781 -0.1608 0.461554 0.336489 -0.15328 0.545613 
0.254033 -0.18399 0.627231 0.138251 -0.16009 0.616632 0.190135 -0.25578 1.1034 
1.68808 -0.245108 1.39339 1.80954 -0.217463 1.08425 1.32567 -0.287368 1.96358 
1.54485 -0.268274 1.71905 0.926353 -0.32531 2.24566 1.14805 -0.296651 2.16181 
0.345396 -0.364711 2.39134 0.529519 -0.335451 2.46644 1.89908 -0.150855 1.19272 
1.78151 -0.167033 1.5332 1.62314 -0.174876 1.85391 1.38813 -0.19273 2.12616 
1.13691 -0.194005 2.36622 0.776129 -0.207871 2.56257 0.493361 -0.188652 2.68791 
0.276574 -0.17488 2.72665 0.255588 -0.1215 -1.68714 0.822818 -0.080311 -1.54554 
0.535944 -0.104368 -1.65558 1.45645 -0.046438 -1.07299 1.19467 -0.068861 -1.32585 
1.84507 -0.00729 -0.452396 1.69169 -0.032308 -0.776631 1.98456 0.041601 0.26934 
1.95954 0.012748 -0.094184 0.246351 0.01067 -1.66156 0.612629 0.01 -1.5952 
0.990993 0.023639 -1.38564 1.20235 0.015341 -1.26728 1.38201 0.030562 -1.0685 
1.59993 0.045229 -0.815234 1.73959 0.06751 -0.487493 1.86103 0.085539 -0.152077 
1.86924 0.10874 0.203874 0.119227 0.059219 -0.837188 0.23352 0.05685 -0.417596 
0.160434 0.052121 -0.571844 0.344361 0.059109 -0.275874 0.360263 0.059021 -0.414726 
0.524605 0.082371 -0.187151 0.49903 0.067219 -0.267424 0.510828 0.09153 0.015823 
0.520876 0.067581 -0.083731 1.85189 0.086399 1.00685 1.96388 0.060789 0.652394 
1.4594 0.125278 1.63379 1.69591 0.103451 1.34718 0.83002 0.147089 2.09508 
1.20099 0.133891 1.89107 0.255494 0.135981 2.30743 0.535735 0.141859 2.23821 
1.86182 0.128408 0.560738 1.73779 0.15065 0.894791 1.59172 0.16795 1.23632 
1.36291 0.183071 1.49925 1.18381 0.189741 1.69912 0.981983 0.206369 1.76717 
0.615818 0.21447 1.95129 0.321427 0.22061 1.98585 0.537203 0.104378 0.226966 
0.527384 0.078388 0.113755 0.351283 0.090073 0.306816 0.514178 0.096031 0.309957 
0.275803 0.12125 0.556649 0.331451 0.094799 0.447104 0.090871 0.13081 0.71451 
0.190689 0.104888 0.612403 0.25059 -0.137824 -0.63502 0.217371 -0.125225 -0.62562 
0.507715 -0.117429 -0.74658 0.838522 -0.092264 -0.741222 0.507112 -0.103814 -0.7439 
0.364116 -0.113759 -0.67268 0.735134 -0.102627 -0.728563 0.636265 -0.105889 -0.74174 
1.10162 -0.097262 -0.618097 1.37878 -0.103964 -0.437839 1.0684 -0.100627 -0.62785 
0.919145 -0.099761 -0.687003 1.36159 -0.10529 -0.433575 1.24085 -0.102183 -0.532743 
1.58617 -0.117376 -0.190837 1.76046 -0.13559 0.101916 1.57544 -0.11449 -0.206832 
1.46784 -0.109298 -0.334965 1.75553 -0.130597 0.109058 1.68797 -0.122347 -0.038943 
1.854 -0.153927 0.430345 1.89181 -0.178974 0.775097 1.85813 -0.145294 0.418208 
1.81083 -0.137972 0.247946 1.89307 -0.168003 0.788108 1.89179 -0.156836 0.62129 
0.169059 -0.137088 -0.925254 0.286611 -0.127617 -0.819121 0.519338 -0.115566 -0.813215 
0.64698 -0.109225 -0.774481 0.764845 -0.107193 -0.750588 0.961426 -0.104847 -0.70115 
1.1218 -0.104916 -0.625097 1.26312 -0.104705 -0.535717 1.388 -0.106633 -0.42881 
1.51462 -0.109121 -0.305432 1.62045 -0.112693 -0.166152 1.71147 -0.117362 -0.022179 
1.78091 -0.122979 0.133221 1.84583 -0.129668 0.302704 1.88533 -0.135719 0.477941 
1.91025 -0.143837 0.650198 1.9124 -0.151438 0.824099 1.85196 -0.197227 1.12485 
1.75044 -0.224876 1.46155 1.86592 -0.183623 1.12076 1.88846 -0.176615 0.940053 
1.75264 -0.208271 1.48004 1.8173 -0.196182 1.32332 1.58274 -0.239497 1.77538 
1.37062 -0.263333 2.03966 1.60182 -0.22152 1.78144 1.69031 -0.216485 1.61987 
1.36426 -0.243553 2.07117 1.48267 -0.232658 1.94942 1.1106 -0.272253 2.27094 
0.848443 -0.298082 2.40815 1.08962 -0.250913 2.31921 1.25403 -0.249826 2.18084 
0.730675 -0.276094 2.4943 0.924697 -0.266662 2.40798 0.488415 -0.291915 2.57084 
0.240365 -0.314066 2.58237 0.477606 -0.263469 2.60807 0.622149 -0.2675 2.55454 
0.168456 -0.288921 2.63516 0.282021 -0.268753 2.64955 1.90506 -0.159814 1.00829 
1.87404 -0.165691 1.18799 1.83071 -0.174698 1.35924 1.76587 -0.181951 1.52304 
1.68927 -0.190626 1.69164 1.59312 -0.195512 1.84657 1.48854 -0.204587 1.98902 
1.3689 -0.210728 2.11671 1.2389 -0.216814 2.24345 1.09968 -0.217846 2.3523 
0.944839 -0.226553 2.44935 0.749523 -0.235155 2.53901 0.629849 -0.234301 2.59009 
0.508375 -0.226475 2.64265 0.293083 -0.224788 2.69726 0.214152 -0.198565 2.72847 
0.218899 -0.09961 -1.71042 0.540067 -0.077369 -1.64833 0.30816 -0.08251 -1.70458 
0.792344 -0.062302 -1.55154 0.671387 -0.068242 -1.60145 1.15795 -0.052189 -1.33756 
0.998018 -0.056799 -1.44903 1.45424 -0.030001 -1.06987 1.30567 -0.04179 -1.22193 
1.66837 -0.01691 -0.786021 1.58213 -0.02446 -0.915709 1.82772 0.00548 -0.469291 
1.75786 -0.00502 -0.634008 1.93566 0.02701 -0.110911 1.89523 0.017879 -0.288104 
1.97013 0.052879 0.226767 1.96178 0.037449 0.047259 0.105505 -0.040331 -1.72345 
0.260869 -0.019048 -1.70698 0.282375 -0.04727 -1.70891 0.514434 -0.051149 -1.65471 
0.575975 -0.02833 -1.63705 0.671126 -0.044149 -1.60263 0.785738 -0.03232 -1.55253 
0.909397 -0.008261 -1.49367 0.96322 -0.02866 -1.46349 1.10882 -0.028351 -1.37087 
1.15529 -0.010429 -1.3378 1.28042 -0.019202 -1.24038 1.40039 -0.009041 -1.11819 
1.41923 0.008348 -1.10628 1.50332 -0.002522 -1.00639 1.6153 0.002642 -0.857073 
1.62516 0.01939 -0.833888 1.73342 0.016149 -0.663466 1.80364 0.02916 -0.497932 
1.80265 0.04521 -0.507256 1.85964 0.038571 -0.350403 1.90939 0.04664 -0.167251 
1.90342 0.061911 -0.153168 1.94714 0.061849 0.058494 1.94905 0.07608 0.239858 
1.94512 0.09013 0.218866 1.93978 0.07485 0.63803 1.9661 0.06641 0.455083 
1.84373 0.09868 0.968587 1.90568 0.084431 0.795258 1.67182 0.11692 1.32485 
1.76139 0.10969 1.16693 1.45611 0.137341 1.5992 1.58549 0.125 1.45279 
1.16149 0.14719 1.8732 1.29932 0.14446 1.76014 0.82053 0.161098 2.0562 
1.0234 0.15192 1.96442 0.537426 0.15715 2.16726 0.67215 0.160132 2.12015 
0.21727 0.152731 2.26179 0.30716 0.161581 2.20656 1.94521 0.085869 0.396194 
1.92504 0.093701 0.582071 1.90926 0.10767 0.587991 1.87588 0.10795 0.804441 
1.80593 0.12097 0.981437 1.8059 0.133989 0.955098 1.73126 0.129662 1.15846 
1.61643 0.139382 1.35135 1.62134 0.150061 1.30466 1.49913 0.151421 1.4979 
1.39454 0.158871 1.6072 1.4086 0.169341 1.56924 1.28791 0.164011 1.7156 
1.12394 0.166189 1.85713 1.14638 0.177999 1.80699 0.944611 0.176429 1.95502 
0.74988 0.18264 2.04488 0.889213 0.19311 1.94278 0.635461 0.177431 2.09524 
0.493461 0.17268 2.12841 0.517264 0.18922 2.14307 0.294764 0.175162 2.04503 
0.182018 0.18725 2.01723 0.273296 0.20748 2.04593 0.211929 -0.112311 -0.62398 
0.408937 -0.101808 -0.69075 0.544554 -0.106531 -0.742702 0.650748 -0.106576 -0.747063 
0.806881 -0.104162 -0.723963 0.976111 -0.102201 -0.671434 1.12991 -0.102737 -0.609815 
1.25194 -0.103863 -0.527986 1.38239 -0.105932 -0.431473 1.51447 -0.110521 -0.289704 
1.62464 -0.114774 -0.154973 1.69939 -0.12028 -0.023896 1.77685 -0.126894 0.123563 
1.83823 -0.13636 0.31461 1.88415 -0.142377 0.4886 1.89905 -0.150695 0.642651 
1.9106 -0.159834 0.811783 1.89085 -0.17141 1.01587 1.8661 -0.176746 1.1974 
1.81961 -0.185801 1.34775 1.76485 -0.195403 1.50996 1.66786 -0.207138 1.69323 
1.57823 -0.210367 1.85254 1.47867 -0.218901 1.97485 1.3679 -0.227263 2.10511 
1.20932 -0.235899 2.24282 1.09388 -0.23252 2.34276 0.970168 -0.246226 2.40752 
0.797679 -0.253411 2.4988 0.63181 -0.250495 2.57349 0.523074 -0.24504 2.61578 
0.378596 -0.246659 2.65521 0.191353 -0.247719 2.68646 0.193877 -0.066518 -1.72013 
0.397316 -0.065069 -1.68587 0.557055 -0.063839 -1.64125 0.674645 -0.056539 -1.60325 
0.844108 -0.046308 -1.53143 1.01556 -0.040089 -1.43377 1.1695 -0.038851 -1.33401 
1.28839 -0.030442 -1.23177 1.40132 -0.02116 -1.12872 1.54198 -0.01367 -0.966535 
1.67035 -0.005239 -0.786373 1.74599 0.005668 -0.642809 1.82468 0.01734 -0.483245 
1.88853 0.031931 -0.279071 1.93761 0.039191 -0.093821 1.95973 0.051771 0.102137 
1.96488 0.067909 0.278064 1.94955 0.080278 0.473212 1.92953 0.08675 0.657949 
1.87684 0.098259 0.849382 1.81321 0.112549 1.01755 1.7432 0.11981 1.16383 
1.67171 0.12595 1.30464 1.5434 0.138618 1.47883 1.39649 0.150822 1.63959 
1.25109 0.156731 1.77212 1.14315 0.155439 1.87141 0.977889 0.164259 1.96456 
0.797913 0.17212 2.04347 0.659093 0.167619 2.10728 0.547949 0.16267 2.1569 
0.391715 0.167002 2.14783 0.19591 0.17202 2.12347 1.89883 -0.094503 -0.021446 
1.87211 -0.036331 1.47658 1.91293 -0.11161 -0.250042 1.90478 -0.01362 1.26039 

thickness 1 687 float
0.907029 0.907029 0.907029 0.907029 0.907029 0.907029 0.907029 0.907029 0.907029 
0.907029 0.907029 0.907029 0.907029 0.907029 0.907029 0.907029 0.907029 0.907029 
0.907029 0.907029 0.907029 0.907029 0.907029 0.907029 0.907029 0.907029 0.907029 
0.907029 0.907029 0.907029 0.907029 0.907029 0.907029 0.907029 0.907029 0.907029 
0.907029 0.907029 0.907029 0.907029 0.907029 0.907029 0.907029 0.907029 0.907029 
0.907029 0.907029 0.907029 0.907029 0.907029 0.907029 0.907029 0.907029 0.907029 
0.907029 0.907029 0.907029 0.907029 0.907029 0.907029 0.907029 0.907029 0.907029 
0.907029 0.907029 0.907029 0.907029 0.907029 0.907029 0.907029 0.907029 0.907029 
0.907029 0.907029 0.907029 0.907029 0.907029 0.907029 0.907029 0.907029 0.907029 
0.907029 0.907029 0.907029 0.907029 0.907029 0.907029 0.907029 0.907029 0.907029 
0.907029 0.907029 0.907029 0.907029 0.907029 0.907029 0.907029 0.907029 0.907029 
0.907029 0.907029 0.907029 0.907029 0.907029 0.907029 0.907029 0.907029 0.907029 
0.907029 0.907029 0.907029 0.907029 0.907029 0.907029 0.907029 0.907029 0.907029 
0.907029 0.907029 0.907029 0.907029 0.907029 0.907029 0.907029 0.907029 0.907029 
0.907029 0.907029 0.907029 0.907029 0.907029 0.907029 0.907029 0.907029 0.907029 
0.907029 0.907029 0.907029 0.907029 0.907029 0.907029 0.907029 0.907029 0.907029 
0.907029 0.907029 0.907029 0.907029 0.907029 0.907029 0.907029 0.907029 0.907029 
0.907029 0.907029 0.907029 0.907029 0.907029 0.907029 0.907029 0.907029 0.907029 
0.907029 0.907029 0.907029 0.907029 0.907029 0.907029 0.907029 0.907029 0.907029 
0.907029 0.907029 0.907029 0.907029 0.907029 0.840358 0.865175 0.797284 0.837105 
0.797206 0.842097 0.817679 0.822261 0.807845 0.851847 0.816773 0.85776 0.81766 
0.860707 0.82273 0.864483 0.818953 0.861748 0.831882 0.858275 0.784522 0.702274 
0.648102 0.614946 0.592076 0.581849 0.584588 0.58499 0.587024 0.586074 0.586495 
0.585804 0.597441 0.628143 0.668181 0.727507 0.801734 0.847303 0.812845 0.854141 
0.810782 0.855363 0.828356 0.828538 0.809343 0.850948 0.812271 0.847477 0.805275 
0.819996 0.818855 0.815372 0.813514 0.841277 0.812577 0.767276 0.683443 0.628184 
0.607597 0.591358 0.584264 0.588099 0.589893 0.592921 0.593947 0.598606 0.602168 
0.603141 0.643424 0.671719 0.722198 0.788275 0.60678 0.608285 0.609294 0.582846 
0.585981 0.58997 0.584531 0.587023 0.590141 0.587818 0.592268 0.595963 0.641437 
0.614468 0.601703 0.59487 0.598249 0.593063 0.609537 0.60223 0.597868 0.599052 
0.601041 0.603554 0.600008 0.6042 0.590279 0.583704 0.588251 0.592349 0.592319 
0.589253 0.585837 0.591183 0.588974 0.586296 0.589744 0.705242 0.657788 0.712748 
0.730737 0.663812 0.720376 0.737173 0.662109 0.641223 0.638612 0.643793 0.627105 
0.635179 0.605257 0.609855 0.613927 0.608428 0.604527 0.72418 0.736697 0.6577 
0.717544 0.685336 0.64866 0.614985 0.62443 0.622246 0.618493 0.596804 0.591946 
0.585709 0.582733 0.584773 0.589866 0.586161 0.593038 0.591022 0.613823 0.650026 
0.617581 0.610735 0.652541 0.616981 0.614422 0.65498 0.701366 0.72689 0.709298 
0.733294 0.716618 0.592084 0.592025 0.587146 0.589009 0.618602 0.613709 0.654876 
0.620372 0.615975 0.64872 0.732451 0.718992 0.708257 0.715326 0.747048 0.769024 
0.756057 0.778724 0.78504 0.770942 0.764487 0.787695 0.778315 0.639215 0.642769 
0.644779 0.636227 0.639309 0.628365 0.631327 0.62066 0.623244 0.606444 0.612942 
0.623867 0.622016 0.621969 0.617115 0.614555 0.610409 0.607856 0.792594 0.772523 
0.793606 0.781106 0.794249 0.769986 0.790082 0.726359 0.614043 0.616267 0.606812 
0.609189 0.606282 0.60314 0.608937 0.60175 0.602984 0.599789 0.596032 0.593989 
0.590375 0.588127 0.58431 0.582958 0.584404 0.587975 0.585357 0.591348 0.589321 
0.592849 0.591601 0.594692 0.59336 0.602362 0.602283 0.604471 0.600134 0.602544 
0.603758 0.605965 0.605417 0.606657 0.726162 0.771949 0.765425 0.782648 0.766156 
0.761804 0.769098 0.774117 0.784357 0.594358 0.594125 0.594158 0.593753 0.593193 
0.592865 0.587524 0.590278 0.606371 0.607763 0.60605 0.605281 0.602698 0.608391 
0.606421 0.608203 0.765362 0.786773 0.791169 0.774277 0.764695 0.787941 0.757017 
0.780589 0.632467 0.609634 0.632213 0.641475 0.632998 0.617185 0.637394 0.634414 
0.636037 0.632246 0.634497 0.636693 0.63009 0.631663 0.62659 0.623245 0.625121 
0.627758 0.620754 0.622419 0.617522 0.614787 0.616044 0.618586 0.612068 0.613583 
0.60918 0.615685 0.628783 0.633641 0.633191 0.629928 0.62807 0.626786 0.625441 
0.623029 0.620559 0.618842 0.617158 0.614854 0.612554 0.610855 0.609258 0.609545 
0.607474 0.607885 0.61016 0.604498 0.605732 0.602491 0.600821 0.600688 0.602803 
0.597958 0.598914 0.597097 0.598087 0.59471 0.596534 0.594017 0.594519 0.594229 
0.596267 0.590894 0.592314 0.592668 0.590568 0.606934 0.604697 0.603045 0.601474 
0.599481 0.597557 0.596274 0.595204 0.593524 0.591936 0.591038 0.59025 0.589162 
0.587676 0.586061 0.583701 0.584962 0.587944 0.586876 0.589784 0.588997 0.590637 
0.590205 0.592514 0.59147 0.592779 0.592459 0.594167 0.593467 0.594496 0.594421 
0.595592 0.594808 0.591757 0.595433 0.591165 0.590737 0.593873 0.591642 0.592968 
0.596811 0.593127 0.592927 0.594818 0.593482 0.594441 0.59708 0.594827 0.594896 
0.596823 0.595602 0.596499 0.599505 0.596736 0.596657 0.598494 0.597131 0.597791 
0.60059 0.595311 0.595538 0.595865 0.595409 0.595002 0.595449 0.595313 0.594973 
0.594081 0.594599 0.594655 0.594082 0.597209 0.594462 0.589501 0.594296 0.597795 
0.597587 0.599392 0.597835 0.598259 0.601209 0.597616 0.597233 0.599143 0.59742 
0.597138 0.599632 0.596406 0.595519 0.597066 0.595321 0.594222 0.597896 0.595899 
0.601511 0.600671 0.603158 0.601737 0.605489 0.608486 0.626671 0.640765 0.637954 
0.635673 0.63402 0.630799 0.629349 0.627606 0.625219 0.622238 0.620476 0.618721 
0.616317 0.613659 0.611924 0.610329 0.60808 0.605665 0.604037 0.602646 0.600696 
0.598568 0.597229 0.596197 0.594608 0.592909 0.592902 0.592114 0.590622 0.589486 
0.58884 0.588202 0.588775 0.589125 0.589418 0.590262 0.591244 0.591747 0.591662 
0.592197 0.593127 0.593515 0.593762 0.594216 0.59499 0.595538 0.595447 0.595739 