# vtk DataFile Version 2.0
File written by itkPolyDataMeshIO
ASCII
DATASET POLYDATA
POINTS 162 double
0 0.850651 0.525731
0.525731 0 0.850651
0.850651 0.525731 0
0 -0.850651 0.525731
0.525731 0 -0.850651
-0.850651 0.525731 0
0 -0.850651 -0.525731
-0.525731 0 -0.850651
-0.850651 -0.525731 0
0 0.850651 -0.525731
-0.525731 0 0.850651
0.850651 -0.525731 0
0.309017 0.5 0.809017
0.809017 0.309017 0.5
0.5 0.809017 0.309017
0 1 0
-0.5 0.809017 -0.309017
-0.5 0.809017 0.309017
0.5 0.809017 -0.309017
0 -1 0
0.5 -0.809017 -0.309017
0.5 -0.809017 0.309017
-0.5 -0.809017 0.309017
-0.5 -0.809017 -0.309017
0.809017 0.309017 -0.5
0.309017 0.5 -0.809017
-0.309017 0.5 0.809017
0 0 1
-0.309017 -0.5 0.809017
0.309017 -0.5 0.809017
0.809017 -0.309017 0.5
0 0 -1
-0.309017 0.5 -0.809017
0.309017 -0.5 -0.809017
-0.309017 -0.5 -0.809017
0.809017 -0.309017 -0.5
-0.809017 -0.309017 -0.5
-0.809017 0.309017 -0.5
-0.809017 0.309017 0.5
-0.809017 -0.309017 0.5
1 0 0
-1 0 0
0.688191 0.587785 0.425325
0.425325 0.688191 0.587785
0.587785 0.425325 0.688191
0.160622 0.702046 0.69378
0.259892 0.862668 0.433889
0.433889 0.259892 0.862668
0.69378 0.160622 0.702046
0.862668 0.433889 0.259892
0.702046 0.69378 0.160622
-0.525731 0.850651 0
-0.262866 0.951057 0.16246
-0.262866 0.951057 -0.16246
0 0.961938 0.273267
-0.259892 0.862668 0.433889
0 0.961938 -0.273267
-0.259892 0.862668 -0.433889
-0.702046 0.69378 -0.160622
-0.702046 0.69378 0.160622
0.262866 0.951057 -0.16246
0.262866 0.951057 0.16246
0.525731 0.850651 0
0.702046 0.69378 -0.160622
0.259892 0.862668 -0.433889
0.525731 -0.850651 0
0.262866 -0.951057 0.16246
0.262866 -0.951057 -0.16246
0 -0.961938 0.273267
0.259892 -0.862668 0.433889
0 -0.961938 -0.273267
0.259892 -0.862668 -0.433889
0.702046 -0.69378 -0.160622
0.702046 -0.69378 0.160622
-0.262866 -0.951057 -0.16246
-0.262866 -0.951057 0.16246
-0.525731 -0.850651 0
-0.259892 -0.862668 0.433889
-0.702046 -0.69378 0.160622
-0.702046 -0.69378 -0.160622
-0.259892 -0.862668 -0.433889
0.587785 0.425325 -0.688191
0.425325 0.688191 -0.587785
0.688191 0.587785 -0.425325
0.160622 0.702046 -0.69378
0.862668 0.433889 -0.259892
0.69378 0.160622 -0.702046
0.433889 0.259892 -0.862668
-0.16246 0.262866 0.951057
0.16246 0.262866 0.951057
0 0.525731 0.850651
0.273267 0 0.961938
-0.160622 0.702046 0.69378
-0.433889 0.259892 0.862668
-0.273267 0 0.961938
0 -0.525731 0.850651
0.16246 -0.262866 0.951057
-0.16246 -0.262866 0.951057
0.433889 -0.259892 0.862668
-0.433889 -0.259892 0.862668
-0.160622 -0.702046 0.69378
0.160622 -0.702046 0.69378
0.688191 -0.587785 0.425325
0.587785 -0.425325 0.688191
0.425325 -0.688191 0.587785
0.69378 -0.160622 0.702046
0.862668 -0.433889 0.259892
0 0.525731 -0.850651
0.16246 0.262866 -0.951057
-0.16246 0.262866 -0.951057
0.273267 0 -0.961938
-0.273267 0 -0.961938
-0.433889 0.259892 -0.862668
-0.160622 0.702046 -0.69378
-0.16246 -0.262866 -0.951057
0.16246 -0.262866 -0.951057
0 -0.525731 -0.850651
0.433889 -0.259892 -0.862668
0.160622 -0.702046 -0.69378
-0.160622 -0.702046 -0.69378
-0.433889 -0.259892 -0.862668
0.425325 -0.688191 -0.587785
0.587785 -0.425325 -0.688191
0.688191 -0.587785 -0.425325
0.69378 -0.160622 -0.702046
0.862668 -0.433889 -0.259892
-0.688191 -0.587785 -0.425325
-0.587785 -0.425325 -0.688191
-0.425325 -0.688191 -0.587785
-0.69378 -0.160622 -0.702046
-0.862668 -0.433889 -0.259892
-0.425325 0.688191 -0.587785
-0.587785 0.425325 -0.688191
-0.688191 0.587785 -0.425325
-0.69378 0.160622 -0.702046
-0.862668 0.433889 -0.259892
-0.688191 0.587785 0.425325
-0.587785 0.425325 0.688191
-0.425325 0.688191 0.587785
-0.69378 0.160622 0.702046
-0.862668 0.433889 0.259892
-0.425325 -0.688191 0.587785
-0.587785 -0.425325 0.688191
-0.688191 -0.587785 0.425325
-0.69378 -0.160622 0.702046
-0.862668 -0.433889 0.259892
0.951057 -0.16246 0.262866
0.951057 0.16246 0.262866
0.850651 0 0.525731
0.961938 0.273267 0
0.961938 -0.273267 0
0.850651 0 -0.525731
0.951057 0.16246 -0.262866
0.951057 -0.16246 -0.262866
-0.951057 0.16246 0.262866
-0.951057 -0.16246 0.262866
-0.850651 0 0.525731
-0.961938 -0.273267 0
-0.961938 0.273267 0
-0.850651 0 -0.525731
-0.951057 -0.16246 -0.262866
-0.951057 0.16246 -0.262866
POLYGONS 320 1280
3 43 44 42
3 13 42 44
3 42 14 43
3 44 43 12
3 43 46 45
3 0 45 46
3 45 12 43
3 46 43 14
3 48 44 47
3 12 47 44
3 47 1 48
3 44 48 13
3 49 50 42
3 14 42 50
3 42 13 49
3 50 49 2
3 52 53 51
3 16 51 53
3 51 17 52
3 53 52 15
3 52 55 54
3 0 54 55
3 54 15 52
3 55 52 17
3 57 53 56
3 15 56 53
3 56 9 57
3 53 57 16
3 58 59 51
3 17 51 59
3 51 16 58
3 59 58 5
3 61 62 60
3 18 60 62
3 60 15 61
3 62 61 14
3 61 54 46
3 0 46 54
3 46 14 61
3 54 61 15
3 63 62 50
3 14 50 62
3 50 2 63
3 62 63 18
3 64 56 60
3 15 60 56
3 60 18 64
3 56 64 9
3 66 67 65
3 20 65 67
3 65 21 66
3 67 66 19
3 66 69 68
3 3 68 69
3 68 19 66
3 69 66 21
3 71 67 70
3 19 70 67
3 70 6 71
3 67 71 20
3 72 73 65
3 21 65 73
3 65 20 72
3 73 72 11
3 75 76 74
3 23 74 76
3 74 19 75
3 76 75 22
3 75 68 77
3 3 77 68
3 77 22 75
3 68 75 19
3 79 76 78
3 22 78 76
3 78 8 79
3 76 79 23
3 80 70 74
3 19 74 70
3 74 23 80
3 70 80 6
3 82 83 81
3 24 81 83
3 81 25 82
3 83 82 18
3 82 84 64
3 9 64 84
3 64 18 82
3 84 82 25
3 85 83 63
3 18 63 83
3 63 2 85
3 83 85 24
3 86 87 81
3 25 81 87
3 81 24 86
3 87 86 4
3 89 90 88
3 26 88 90
3 88 27 89
3 90 89 12
3 89 91 47
3 1 47 91
3 47 12 89
3 91 89 27
3 92 90 45
3 12 45 90
3 45 0 92
3 90 92 26
3 93 94 88
3 27 88 94
3 88 26 93
3 94 93 10
3 96 97 95
3 28 95 97
3 95 29 96
3 97 96 27
3 96 98 91
3 1 91 98
3 91 27 96
3 98 96 29
3 99 97 94
3 27 94 97
3 94 10 99
3 97 99 28
3 100 101 95
3 29 95 101
3 95 28 100
3 101 100 3
3 103 104 102
3 21 102 104
3 102 30 103
3 104 103 29
3 103 105 98
3 1 98 105
3 98 29 103
3 105 103 30
3 69 104 101
3 29 101 104
3 101 3 69
3 104 69 21
3 73 106 102
3 30 102 106
3 102 21 73
3 106 73 11
3 108 109 107
3 32 107 109
3 107 25 108
3 109 108 31
3 108 87 110
3 4 110 87
3 110 31 108
3 87 108 25
3 112 109 111
3 31 111 109
3 111 7 112
3 109 112 32
3 113 84 107
3 25 107 84
3 107 32 113
3 84 113 9
3 115 116 114
3 34 114 116
3 114 31 115
3 116 115 33
3 115 110 117
3 4 117 110
3 117 33 115
3 110 115 31
3 119 116 118
3 33 118 116
3 118 6 119
3 116 119 34
3 120 111 114
3 31 114 111
3 114 34 120
3 111 120 7
3 122 123 121
3 20 121 123
3 121 33 122
3 123 122 35
3 122 117 124
3 4 124 117
3 124 35 122
3 117 122 33
3 72 123 125
3 35 125 123
3 125 11 72
3 123 72 20
3 71 118 121
3 33 121 118
3 121 20 71
3 118 71 6
3 127 128 126
3 23 126 128
3 126 36 127
3 128 127 34
3 127 129 120
3 7 120 129
3 120 34 127
3 129 127 36
3 80 128 119
3 34 119 128
3 119 6 80
3 128 80 23
3 79 130 126
3 36 126 130
3 126 23 79
3 130 79 8
3 132 133 131
3 16 131 133
3 131 32 132
3 133 132 37
3 132 112 134
3 7 134 112
3 134 37 132
3 112 132 32
3 58 133 135
3 37 135 133
3 135 5 58
3 133 58 16
3 57 113 131
3 32 131 113
3 131 16 57
3 113 57 9
3 137 138 136
3 17 136 138
3 136 38 137
3 138 137 26
3 137 139 93
3 10 93 139
3 93 26 137
3 139 137 38
3 55 138 92
3 26 92 138
3 92 0 55
3 138 55 17
3 59 140 136
3 38 136 140
3 136 17 59
3 140 59 5
3 142 143 141
3 22 141 143
3 141 28 142
3 143 142 39
3 142 99 144
3 10 144 99
3 144 39 142
3 99 142 28
3 78 143 145
3 39 145 143
3 145 8 78
3 143 78 22
3 77 100 141
3 28 141 100
3 141 22 77
3 100 77 3
3 147 148 146
3 30 146 148
3 146 40 147
3 148 147 13
3 147 149 49
3 2 49 149
3 49 13 147
3 149 147 40
3 105 148 48
3 13 48 148
3 48 1 105
3 148 105 30
3 106 150 146
3 40 146 150
3 146 30 106
3 150 106 11
3 152 153 151
3 35 151 153
3 151 24 152
3 153 152 40
3 152 85 149
3 2 149 85
3 149 40 152
3 85 152 24
3 125 153 150
3 40 150 153
3 150 11 125
3 153 125 35
3 124 86 151
3 24 151 86
3 151 35 124
3 86 124 4
3 155 156 154
3 38 154 156
3 154 41 155
3 156 155 39
3 155 157 145
3 8 145 157
3 145 39 155
3 157 155 41
3 139 156 144
3 39 144 156
3 144 10 139
3 156 139 38
3 140 158 154
3 41 154 158
3 154 38 140
3 158 140 5
3 160 161 159
3 37 159 161
3 159 36 160
3 161 160 41
3 160 130 157
3 8 157 130
3 157 41 160
3 130 160 36
3 135 161 158
3 41 158 161
3 158 5 135
3 161 135 37
3 134 129 159
3 36 159 129
3 159 37 134
3 129 134 7
POINT_DATA 162
VECTORS PointVectorData   double
-5.63279e-18  0.85065  0.525732  
0.525732  0  0.85065  
0.85065  0.525732  0  
-5.63279e-18  -0.85065  0.525732  
0.525732  0  -0.85065  
-0.85065  0.525732  5.63279e-18  
5.63279e-18  -0.85065  -0.525732  
-0.525732  0  -0.85065  
-0.85065  -0.525732  -5.63279e-18  
-5.63279e-18  0.85065  -0.525732  
-0.525732  0  0.85065  
0.85065  -0.525732  5.63279e-18  
0.309018  0.500001  0.809016  
0.809016  0.309018  0.500001  
0.500001  0.809016  0.309018  
0  1  0  
-0.500001  0.809016  -0.309018  
-0.500001  0.809016  0.309018  
0.500001  0.809016  -0.309018  
0  -1  0  
0.500001  -0.809016  -0.309018  
0.500001  -0.809016  0.309018  
-0.500001  -0.809016  0.309018  
-0.500001  -0.809016  -0.309018  
0.809016  0.309018  -0.500001  
0.309018  0.500001  -0.809016  
-0.309018  0.500001  0.809016  
0  0  1  
-0.309018  -0.500001  0.809016  
0.309018  -0.500001  0.809016  
0.809016  -0.309018  0.500001  
0  0  -1  
-0.309018  0.500001  -0.809016  
0.309018  -0.500001  -0.809016  
-0.309018  -0.500001  -0.809016  
0.809016  -0.309018  -0.500001  
-0.809016  -0.309018  -0.500001  
-0.809016  0.309018  -0.500001  
-0.809016  0.309018  0.500001  
-0.809016  -0.309018  0.500001  
1  0  0  
-1  0  0  
0.681224  0.587735  0.436466  
0.436466  0.681224  0.587735  
0.587735  0.436466  0.681224  
0.153109  0.710494  0.686845  
0.247736  0.863602  0.439111  
0.439111  0.247736  0.863602  
0.686845  0.153109  0.710494  
0.863602  0.439111  0.247736  
0.710494  0.686845  0.153109  
-0.514511  0.857484  -4.70023e-18  
-0.26975  0.950974  0.15127  
-0.26975  0.950974  -0.15127  
-4.69423e-18  0.958229  0.286001  
-0.247736  0.863602  0.439111  
0  0.958229  -0.286001  
-0.247736  0.863602  -0.439111  
-0.710494  0.686845  -0.153109  
-0.710494  0.686845  0.153109  
0.26975  0.950974  -0.15127  
0.26975  0.950974  0.15127  
0.514511  0.857484  4.70023e-18  
0.710494  0.686845  -0.153109  
0.247736  0.863602  -0.439111  
0.514511  -0.857484  -4.70023e-18  
0.26975  -0.950974  0.15127  
0.26975  -0.950974  -0.15127  
4.69423e-18  -0.958229  0.286001  
0.247736  -0.863602  0.439111  
0  -0.958229  -0.286001  
0.247736  -0.863602  -0.439111  
0.710494  -0.686845  -0.153109  
0.710494  -0.686845  0.153109  
-0.26975  -0.950974  -0.15127  
-0.26975  -0.950974  0.15127  
-0.514511  -0.857484  4.70023e-18  
-0.247736  -0.863602  0.439111  
-0.710494  -0.686845  0.153109  
-0.710494  -0.686845  -0.153109  
-0.247736  -0.863602  -0.439111  
0.587735  0.436466  -0.681224  
0.436466  0.681224  -0.587735  
0.681224  0.587735  -0.436466  
0.153109  0.710494  -0.686845  
0.863602  0.439111  -0.247736  
0.686845  0.153109  -0.710494  
0.439111  0.247736  -0.863602  
-0.15127  0.26975  0.950974  
0.15127  0.26975  0.950974  
4.70023e-18  0.514511  0.857484  
0.286001  0  0.958229  
-0.153109  0.710494  0.686845  
-0.439111  0.247736  0.863602  
-0.286001  4.69423e-18  0.958229  
-4.70023e-18  -0.514511  0.857484  
0.15127  -0.26975  0.950974  
-0.15127  -0.26975  0.950974  
0.439111  -0.247736  0.863602  
-0.439111  -0.247736  0.863602  
-0.153109  -0.710494  0.686845  
0.153109  -0.710494  0.686845  
0.681224  -0.587735  0.436466  
0.587735  -0.436466  0.681224  
0.436466  -0.681224  0.587735  
0.686845  -0.153109  0.710494  
0.863602  -0.439111  0.247736  
-4.70023e-18  0.514511  -0.857484  
0.15127  0.26975  -0.950974  
-0.15127  0.26975  -0.950974  
0.286001  4.69423e-18  -0.958229  
-0.286001  0  -0.958229  
-0.439111  0.247736  -0.863602  
-0.153109  0.710494  -0.686845  
-0.15127  -0.26975  -0.950974  
0.15127  -0.26975  -0.950974  
4.70023e-18  -0.514511  -0.857484  
0.439111  -0.247736  -0.863602  
0.153109  -0.710494  -0.686845  
-0.153109  -0.710494  -0.686845  
-0.439111  -0.247736  -0.863602  
0.436466  -0.681224  -0.587735  
0.587735  -0.436466  -0.681224  
0.681224  -0.587735  -0.436466  
0.686845  -0.153109  -0.710494  
0.863602  -0.439111  -0.247736  
-0.681224  -0.587735  -0.436466  
-0.587735  -0.436466  -0.681224  
-0.436466  -0.681224  -0.587735  
-0.686845  -0.153109  -0.710494  
-0.863602  -0.439111  -0.247736  
-0.436466  0.681224  -0.587735  
-0.587735  0.436466  -0.681224  
-0.681224  0.587735  -0.436466  
-0.686845  0.153109  -0.710494  
-0.863602  0.439111  -0.247736  
-0.681224  0.587735  0.436466  
-0.587735  0.436466  0.681224  
-0.436466  0.681224  0.587735  
-0.686845  0.153109  0.710494  
-0.863602  0.439111  0.247736  
-0.436466  -0.681224  0.587735  
-0.587735  -0.436466  0.681224  
-0.681224  -0.587735  0.436466  
-0.686845  -0.153109  0.710494  
-0.863602  -0.439111  0.247736  
0.950974  -0.15127  0.26975  
0.950974  0.15127  0.26975  
0.857484  4.70023e-18  0.514511  
0.958229  0.286001  0  
0.958229  -0.286001  4.69423e-18  
0.857484  -4.70023e-18  -0.514511  
0.950974  0.15127  -0.26975  
0.950974  -0.15127  -0.26975  
-0.950974  0.15127  0.26975  
-0.950974  -0.15127  0.26975  
-0.857484  -4.70023e-18  0.514511  
-0.958229  -0.286001  0  
-0.958229  0.286001  4.69423e-18  
-0.857484  4.70023e-18  -0.514511  
-0.950974  -0.15127  -0.26975  
-0.950974  0.15127  -0.26975  
CELL_DATA 320
VECTORS CellVectorData   double
0.57735  0.57735  0.57735  
0.703824  0.451884  0.548117  
0.548117  0.703824  0.451884  
0.451884  0.548117  0.703824  
0.272064  0.768627  0.578959  
0.161366  0.810752  0.56271  
0.315753  0.634356  0.705615  
0.412232  0.790459  0.453034  
0.578959  0.272064  0.768627  
0.453034  0.412232  0.790459  
0.56271  0.161366  0.810752  
0.705615  0.315753  0.634356  
0.768627  0.578959  0.272064  
0.634356  0.705615  0.315753  
0.790459  0.453034  0.412232  
0.810752  0.56271  0.161366  
-0.356824  0.934172  0  
-0.43499  0.88687  -0.155709  
-0.43499  0.88687  0.155709  
-0.183044  0.983105  0  
-0.168144  0.936772  0.306896  
-0.0997298  0.910482  0.401344  
-0.0986662  0.985606  0.13728  
-0.351252  0.889127  0.293387  
-0.168144  0.936772  -0.306896  
-0.0986662  0.985606  -0.13728  
-0.0997298  0.910482  -0.401344  
-0.351252  0.889127  -0.293387  
-0.664711  0.747101  0  
-0.573376  0.804283  0.156105  
-0.573376  0.804283  -0.156105  
-0.749115  0.66244  0  
0.356824  0.934172  0  
0.43499  0.88687  -0.155709  
0.183044  0.983105  -0  
0.43499  0.88687  0.155709  
0.168144  0.936772  0.306896  
0.0997298  0.910482  0.401344  
0.351252  0.889127  0.293387  
0.0986662  0.985606  0.13728  
0.664711  0.747101  -0  
0.573376  0.804283  0.156105  
0.749115  0.66244  0  
0.573376  0.804283  -0.156105  
0.168144  0.936772  -0.306896  
0.0986662  0.985606  -0.13728  
0.351252  0.889127  -0.293387  
0.0997298  0.910482  -0.401344  
0.356824  -0.934172  0  
0.43499  -0.88687  -0.155709  
0.43499  -0.88687  0.155709  
0.183044  -0.983105  0  
0.168144  -0.936772  0.306896  
0.0997298  -0.910482  0.401344  
0.0986662  -0.985606  0.13728  
0.351252  -0.889127  0.293387  
0.168144  -0.936772  -0.306896  
0.0986662  -0.985606  -0.13728  
0.0997298  -0.910482  -0.401344  
0.351252  -0.889127  -0.293387  
0.664711  -0.747101  0  
0.573376  -0.804283  0.156105  
0.573376  -0.804283  -0.156105  
0.749115  -0.66244  0  
-0.356824  -0.934172  -0  
-0.43499  -0.88687  -0.155709  
-0.183044  -0.983105  0  
-0.43499  -0.88687  0.155709  
-0.168144  -0.936772  0.306896  
-0.0997298  -0.910482  0.401344  
-0.351252  -0.889127  0.293387  
-0.0986662  -0.985606  0.13728  
-0.664711  -0.747101  0  
-0.573376  -0.804283  0.156105  
-0.749115  -0.66244  -0  
-0.573376  -0.804283  -0.156105  
-0.168144  -0.936772  -0.306896  
-0.0986662  -0.985606  -0.13728  
-0.351252  -0.889127  -0.293387  
-0.0997298  -0.910482  -0.401344  
0.57735  0.57735  -0.57735  
0.703824  0.451884  -0.548117  
0.451884  0.548117  -0.703824  
0.548117  0.703824  -0.451884  
0.272064  0.768627  -0.578959  
0.161366  0.810752  -0.56271  
0.412232  0.790459  -0.453034  
0.315753  0.634356  -0.705615  
0.768627  0.578959  -0.272064  
0.634356  0.705615  -0.315753  
0.810752  0.56271  -0.161366  
0.790459  0.453034  -0.412232  
0.578959  0.272064  -0.768627  
0.453034  0.412232  -0.790459  
0.705615  0.315753  -0.634356  
0.56271  0.161366  -0.810752  
0  0.356824  0.934172  
-0.155709  0.43499  0.88687  
-0  0.183044  0.983105  
0.155709  0.43499  0.88687  
0.306896  0.168144  0.936772  
0.401344  0.0997298  0.910482  
0.293387  0.351252  0.889127  
0.13728  0.0986662  0.985606  
-0  0.664711  0.747101  
0.156105  0.573376  0.804283  
0  0.749115  0.66244  
-0.156105  0.573376  0.804283  
-0.306896  0.168144  0.936772  
-0.13728  0.0986662  0.985606  
-0.293387  0.351252  0.889127  
-0.401344  0.0997298  0.910482  
0  -0.356824  0.934172  
-0.155709  -0.43499  0.88687  
0.155709  -0.43499  0.88687  
0  -0.183044  0.983105  
0.306896  -0.168144  0.936772  
0.401344  -0.0997298  0.910482  
0.13728  -0.0986662  0.985606  
0.293387  -0.351252  0.889127  
-0.306896  -0.168144  0.936772  
-0.13728  -0.0986662  0.985606  
-0.401344  -0.0997298  0.910482  
-0.293387  -0.351252  0.889127  
0  -0.664711  0.747101  
0.156105  -0.573376  0.804283  
-0.156105  -0.573376  0.804283  
0  -0.749115  0.66244  
0.57735  -0.57735  0.57735  
0.548117  -0.703824  0.451884  
0.703824  -0.451884  0.548117  
0.451884  -0.548117  0.703824  
0.578959  -0.272064  0.768627  
0.56271  -0.161366  0.810752  
0.453034  -0.412232  0.790459  
0.705615  -0.315753  0.634356  
0.272064  -0.768627  0.578959  
0.315753  -0.634356  0.705615  
0.161366  -0.810752  0.56271  
0.412232  -0.790459  0.453034  
0.768627  -0.578959  0.272064  
0.790459  -0.453034  0.412232  
0.634356  -0.705615  0.315753  
0.810752  -0.56271  0.161366  
0  0.356824  -0.934172  
-0.155709  0.43499  -0.88687  
0.155709  0.43499  -0.88687  
0  0.183044  -0.983105  
0.306896  0.168144  -0.936772  
0.401344  0.0997298  -0.910482  
0.13728  0.0986662  -0.985606  
0.293387  0.351252  -0.889127  
-0.306896  0.168144  -0.936772  
-0.13728  0.0986662  -0.985606  
-0.401344  0.0997298  -0.910482  
-0.293387  0.351252  -0.889127  
0  0.664711  -0.747101  
0.156105  0.573376  -0.804283  
-0.156105  0.573376  -0.804283  
0  0.749115  -0.66244  
-0  -0.356824  -0.934172  
-0.155709  -0.43499  -0.88687  
0  -0.183044  -0.983105  
0.155709  -0.43499  -0.88687  
0.306896  -0.168144  -0.936772  
0.401344  -0.0997298  -0.910482  
0.293387  -0.351252  -0.889127  
0.13728  -0.0986662  -0.985606  
0  -0.664711  -0.747101  
0.156105  -0.573376  -0.804283  
-0  -0.749115  -0.66244  
-0.156105  -0.573376  -0.804283  
-0.306896  -0.168144  -0.936772  
-0.13728  -0.0986662  -0.985606  
-0.293387  -0.351252  -0.889127  
-0.401344  -0.0997298  -0.910482  
0.57735  -0.57735  -0.57735  
0.548117  -0.703824  -0.451884  
0.451884  -0.548117  -0.703824  
0.703824  -0.451884  -0.548117  
0.578959  -0.272064  -0.768627  
0.56271  -0.161366  -0.810752  
0.705615  -0.315753  -0.634356  
0.453034  -0.412232  -0.790459  
0.768627  -0.578959  -0.272064  
0.790459  -0.453034  -0.412232  
0.810752  -0.56271  -0.161366  
0.634356  -0.705615  -0.315753  
0.272064  -0.768627  -0.578959  
0.315753  -0.634356  -0.705615  
0.412232  -0.790459  -0.453034  
0.161366  -0.810752  -0.56271  
-0.57735  -0.57735  -0.57735  
-0.548117  -0.703824  -0.451884  
-0.703824  -0.451884  -0.548117  
-0.451884  -0.548117  -0.703824  
-0.578959  -0.272064  -0.768627  
-0.56271  -0.161366  -0.810752  
-0.453034  -0.412232  -0.790459  
-0.705615  -0.315753  -0.634356  
-0.272064  -0.768627  -0.578959  
-0.315753  -0.634356  -0.705615  
-0.161366  -0.810752  -0.56271  
-0.412232  -0.790459  -0.453034  
-0.768627  -0.578959  -0.272064  
-0.790459  -0.453034  -0.412232  
-0.634356  -0.705615  -0.315753  
-0.810752  -0.56271  -0.161366  
-0.57735  0.57735  -0.57735  
-0.548117  0.703824  -0.451884  
-0.451884  0.548117  -0.703824  
-0.703824  0.451884  -0.548117  
-0.578959  0.272064  -0.768627  
-0.56271  0.161366  -0.810752  
-0.705615  0.315753  -0.634356  
-0.453034  0.412232  -0.790459  
-0.768627  0.578959  -0.272064  
-0.790459  0.453034  -0.412232  
-0.810752  0.56271  -0.161366  
-0.634356  0.705615  -0.315753  
-0.272064  0.768627  -0.578959  
-0.315753  0.634356  -0.705615  
-0.412232  0.790459  -0.453034  
-0.161366  0.810752  -0.56271  
-0.57735  0.57735  0.57735  
-0.548117  0.703824  0.451884  
-0.703824  0.451884  0.548117  
-0.451884  0.548117  0.703824  
-0.578959  0.272064  0.768627  
-0.56271  0.161366  0.810752  
-0.453034  0.412232  0.790459  
-0.705615  0.315753  0.634356  
-0.272064  0.768627  0.578959  
-0.315753  0.634356  0.705615  
-0.161366  0.810752  0.56271  
-0.412232  0.790459  0.453034  
-0.768627  0.578959  0.272064  
-0.790459  0.453034  0.412232  
-0.634356  0.705615  0.315753  
-0.810752  0.56271  0.161366  
-0.57735  -0.57735  0.57735  
-0.548117  -0.703824  0.451884  
-0.451884  -0.548117  0.703824  
-0.703824  -0.451884  0.548117  
-0.578959  -0.272064  0.768627  
-0.56271  -0.161366  0.810752  
-0.705615  -0.315753  0.634356  
-0.453034  -0.412232  0.790459  
-0.768627  -0.578959  0.272064  
-0.790459  -0.453034  0.412232  
-0.810752  -0.56271  0.161366  
-0.634356  -0.705615  0.315753  
-0.272064  -0.768627  0.578959  
-0.315753  -0.634356  0.705615  
-0.412232  -0.790459  0.453034  
-0.161366  -0.810752  0.56271  
0.934172  0  0.356824  
0.88687  -0.155709  0.43499  
0.983105  -0  0.183044  
0.88687  0.155709  0.43499  
0.936772  0.306896  0.168144  
0.910482  0.401344  0.0997298  
0.889127  0.293387  0.351252  
0.985606  0.13728  0.0986662  
0.747101  -0  0.664711  
0.804283  0.156105  0.573376  
0.66244  0  0.749115  
0.804283  -0.156105  0.573376  
0.936772  -0.306896  0.168144  
0.985606  -0.13728  0.0986662  
0.889127  -0.293387  0.351252  
0.910482  -0.401344  0.0997298  
0.934172  0  -0.356824  
0.88687  -0.155709  -0.43499  
0.88687  0.155709  -0.43499  
0.983105  0  -0.183044  
0.936772  0.306896  -0.168144  
0.910482  0.401344  -0.0997298  
0.985606  0.13728  -0.0986662  
0.889127  0.293387  -0.351252  
0.936772  -0.306896  -0.168144  
0.985606  -0.13728  -0.0986662  
0.910482  -0.401344  -0.0997298  
0.889127  -0.293387  -0.351252  
0.747101  0  -0.664711  
0.804283  0.156105  -0.573376  
0.804283  -0.156105  -0.573376  
0.66244  0  -0.749115  
-0.934172  0  0.356824  
-0.88687  0.155709  0.43499  
-0.983105  0  0.183044  
-0.88687  -0.155709  0.43499  
-0.936772  -0.306896  0.168144  
-0.910482  -0.401344  0.0997298  
-0.889127  -0.293387  0.351252  
-0.985606  -0.13728  0.0986662  
-0.747101  0  0.664711  
-0.804283  -0.156105  0.573376  
-0.66244  0  0.749115  
-0.804283  0.156105  0.573376  
-0.936772  0.306896  0.168144  
-0.985606  0.13728  0.0986662  
-0.889127  0.293387  0.351252  
-0.910482  0.401344  0.0997298  
-0.934172  0  -0.356824  
-0.88687  0.155709  -0.43499  
-0.88687  -0.155709  -0.43499  
-0.983105  -0  -0.183044  
-0.936772  -0.306896  -0.168144  
-0.910482  -0.401344  -0.0997298  
-0.985606  -0.13728  -0.0986662  
-0.889127  -0.293387  -0.351252  
-0.936772  0.306896  -0.168144  
-0.985606  0.13728  -0.0986662  
-0.910482  0.401344  -0.0997298  
-0.889127  0.293387  -0.351252  
-0.747101  -0  -0.664711  
-0.804283  -0.156105  -0.573376  
-0.804283  0.156105  -0.573376  
-0.66244  0  -0.749115  
