# vtk DataFile Version 3.0
vtk output
ASCII
DATASET UNSTRUCTURED_GRID
POINTS 687 float
5 7 10 5 7 10 5 8 11.25 
5 8.25 11 5 8 10 5 7 11.25 
5 7.5 13 5 8 12.5 5 7 10.3125 
5 7 10.625 5 7 10.9375 5 7.38766 11.25 
5 7.64592 11.25 5 7.80052 11.25 5 7.90878 11.25 
5 8.01755 11.158 5 8.07322 11.0732 5 8.15798 11.0176 
5 8.25 10.1644 5 8.25 10.3763 5 8.25 10.5485 
5 8.25 10.6871 5 8.25 10.8026 5 8.25 10.9045 
5 7.74324 10 5 7.41786 10 5 7 11.6875 
5 7 12.125 5 7 12.5625 5 7.30926 13 
5 7.68405 12.9649 5 7.85355 12.8536 5 7.96489 12.684 
5 8 12.3065 5 8 12.1233 5 8 11.9567 
5 8 11.8086 5 8 11.6771 5 8 11.5591 
5 8 11.4509 5 8 11.3489 5 7.93205 11.0425 
5 7.80734 11.0245 5 7.67859 10.99 5 7.51824 10.9746 
5 7.32515 10.9611 5 8.01086 10.2002 5 8.03769 10.3933 
5 8.06323 10.5667 5 8.09469 10.7162 5 8.13242 10.8231 
5 8.14712 10.922 5 7.39469 10.6822 5 7.65901 10.6508 
5 7.8705 10.6089 5 7.93308 10.788 5 7.93412 10.9257 
5 7.7282 10.8379 5 7.82322 10.9294 5 7.54704 10.8316 
5 8.04809 10.9431 5 8.03786 10.8514 5 7.44218 10.3424 
5 7.75573 10.2431 5 7.82664 10.4299 5 7.64261 10.4744 
5 7.91347 11.1466 5 7.79547 11.136 5 7.66053 11.123 
5 7.52214 11.1159 5 7.44943 11.7066 5 7.68075 11.6735 
5 7.84745 11.667 5 7.40022 12.1904 5 7.64784 12.1371 
5 7.83294 12.1302 5 7.85639 12.4875 5 7.71852 12.5169 
5 7.5621 12.5627 5 7.35291 12.6213 5 7.84497 12.3142 
5 7.69057 12.3325 5 7.55096 12.3619 5 7.62604 12.7508 
5 7.76505 12.6851 5 7.86211 12.6189 5 7.49298 12.7907 
5 7.85524 11.8031 5 7.83896 11.9463 5 7.6677 11.8951 
5 7.73456 11.7906 5 7.8089 11.3764 5 7.85382 11.5144 
5 7.6916 11.5296 5 7.67156 11.3874 5 7.56029 11.5433 
5 7.53983 11.3935 5 7.90972 11.3537 5 7.92118 11.4397 
5 24 8 5 24 9 5 19.75 8 
5 16 9 5 16 11 5 11.25 9 
5 11.25 11 5 8.25 9.923 5 0 13 
5 0 10 5 7 13 0 8.1543 11.019 
0 8.07322 11.0732 0 8.01904 11.1543 0 8 11.25 
2.5 8.25 11 2.5 8.15432 11.019 2.5 8.07324 11.0732 
2.5 8.01903 11.1543 2.5 8 11.25 5 8.15434 11.019 
5 8.01902 11.1543 0 7.96192 12.6914 0 7.85355 12.8536 
0 7.6914 12.9619 2.5 8 12.5 2.5 7.96192 12.6914 
2.5 7.85355 12.8536 2.5 7.6914 12.9619 2.5 7.5 13 
5 7.96192 12.6914 5 7.6914 12.9619 0 24 9 
0 24 8 0 16 9 0 16 11 
0 0 10 0 0 13 0 8.25 11 
0 8 12.5 0 7.5 13 0 26 8 
7 26 8 7 24 8 7 19.75 8 
7 16 9 7 11.25 9 7 8 10 
7 0 10 7 -2 10 0 -2 10 
0 0 -11 0 0 -8 0 -2 -8 
5 -2 -8 7 -2 -8 5 0 -8 
5 0 -11 5 8 -11 5 8 -8 
7 8 -8 5 11.25 -11 5 11.25 -9 
7 11.25 -9 5 16 -11 5 16 -9 
7 16 -9 5 19.75 -11 5 19.75 -10 
7 19.75 -10 0 24 -11 0 24 -10 
5 24 -10 5 24 -11 0 26 -10 
5 26 -10 7 26 -10 0 -12 -4 
0 -12 4 0.59691 -12 -3.95521 1.23343 -12 -3.80508 
1.86684 -12 -3.53764 2.4031 -12 -3.19767 2.82877 -12 -2.82808 
3.32044 -12 -2.2304 3.73551 -12 -1.43038 3.93533 -12 -0.71638 
3.99986 -12 0.03336 3.92368 -12 0.77765 3.70276 -12 1.51312 
3.35693 -12 2.17509 2.89656 -12 2.75861 2.35395 -12 3.23403 
1.75721 -12 3.59335 1.15512 -12 3.82958 0.56093 -12 3.96047 
0 36 4 0 -10.743 4 0 -8.8877 4 
0 -6.64749 4 0 -4.45202 4 0 -0.91936 4 
0 4.14518 4 0 6.58748 4 0 9.66416 4 
0 12.0556 4 0 14.4989 4 0 17.6266 4 
0 20.3196 4 0 24.9607 4 0 29.4472 4 
0 31.7102 4 0 33.6144 4 0 35.0694 4 
0 36 -4 0.59993 36 3.95476 1.23847 36 3.80344 
1.87132 36 3.53528 2.4058 36 3.19564 2.82825 36 2.8286 
3.31559 36 2.2376 3.73171 36 1.44025 3.93289 36 0.72964 
3.99999 36 0.00729 3.93339 36 -0.72693 3.7303 36 -1.44391 
3.33354 36 -2.21076 2.85148 36 -2.80519 2.28639 36 -3.28214 
1.63682 36 -3.64977 1.11455 36 -3.84158 0.56461 36 -3.95995 
0 34.661 -4 0 32.5627 -4 0 29.9725 -4 
0 27.9548 -4 0 24.936 -4 0 20.302 -4 
0 17.5542 -4 0 14.3512 -4 0 11.9689 -4 
0 9.52824 -4 0 6.40852 -4 0 3.7104 -4 
0 -0.45165 -4 0 -4.9424 -4 0 -7.504 -4 
0 -9.50153 -4 0 -11.0253 -4 0 2.06879 -4 
0 1.24817 -4 0 0.49795 -4 0 2.22891 4 
0 0.81573 4 0 -0.2654 4 0 21.9979 -4 
0 23.2408 -4 0 24.3368 -4 0 21.9532 4 
0 23.1639 4 0 24.2218 4 0 -2.85941 -4 
0 -1.4497 -4 0 -2.71248 4 0 -1.53432 4 
0 26.5263 -4 0 25.5061 -4 0 27.2927 4 
0 25.7706 4 2.28036 11.9291 -3.28633 1.91748 7.67834 -3.51045 
1.39183 4.80584 -3.75004 3.10004 4.74612 -2.5278 3.99902 4.81728 0.08855 
3.99929 11.9788 0.07526 3.01126 4.7799 2.63293 1.3206 4.94069 3.77571 
1.85925 7.75999 3.54164 2.26005 12.0455 3.30033 4 19.1687 0.00563 
3.05144 19.2212 -2.58625 1.3639 19.1697 -3.76029 1.9216 16.2623 -3.5082 
1.88377 16.3456 3.52866 1.37297 19.2307 3.75698 3.06558 19.3026 2.56948 
0.86913 -9.0538 -3.90444 1.36253 -6.45576 -3.76079 2.03706 -9.19679 -3.44244 
3.04279 -9.69606 -2.59642 3.11128 -6.58598 -2.51395 3.7595 -9.34266 -1.36607 
3.99985 -9.72826 0.03484 3.99986 -6.60452 0.03337 1.03898 -4.23036 -3.86271 
3.0157 -3.54152 -2.62784 2.05455 -4.03413 -3.43203 3.99994 -3.50264 0.0214 
3.74655 -3.86932 -1.40121 1.00023 2.98374 -3.87292 1.99481 2.63411 -3.46709 
2.98987 2.17564 -2.65719 3.74575 2.45304 -1.40334 3.9997 2.15958 0.04896 
3.72707 -9.3715 1.45222 2.9589 -9.71773 2.69164 3.0344 -6.63176 2.60623 
1.83862 -9.28024 3.55239 0.83367 -8.38579 3.91216 1.43719 -6.66098 3.73289 
2.82548 -3.41986 2.83137 3.71431 -3.8546 1.48454 0.80231 -4.99714 3.91871 
1.77296 -4.35265 3.58561 3.70922 2.45004 1.49723 2.93365 2.16411 2.71913 
1.91758 2.60035 3.5104 0.80755 2.87316 3.91763 0.98341 21.0045 -3.87723 
2.96254 21.8143 -2.68763 1.97163 21.3626 -3.48032 4 21.8263 -0.0017 
3.72906 21.5439 -1.4471 0.84747 28.4195 -3.90919 1.34399 31.0003 -3.76745 
1.95439 28.5374 -3.49004 2.87262 27.5375 -2.78353 3.07745 30.8031 -2.55525 
3.72995 27.9379 -1.4448 3.99996 27.5711 0.01726 3.99996 30.7106 0.01826 
1.04168 33.1935 -3.86198 3.05671 33.7806 -2.58002 2.08878 33.3701 -3.4113 
3.99999 33.7855 0.01071 3.75229 33.4182 -1.38575 2.97043 21.8482 2.67891 
3.73117 21.5642 1.44167 0.98998 21.028 3.87556 1.97903 21.3942 3.47613 
3.71189 27.9005 1.4906 2.82811 27.4453 2.82874 3.04412 30.7018 2.59487 
1.93597 28.3735 3.50029 0.86823 28.146 3.90463 1.3057 30.7039 3.78089 
3.02368 33.7595 2.61866 3.74268 33.397 1.41152 0.86284 33.1639 3.90583 
2.02665 33.2848 3.44858 0.53032 -10.5458 -3.96469 1.24149 -10.7951 -3.80246 
1.85972 -10.739 -3.54139 2.44302 -10.9691 -3.16728 3.06586 -11.1071 -2.56914 
3.48459 -10.8306 -1.96409 3.7465 -10.7956 -1.40133 3.93436 -10.9762 -0.72168 
3.99993 -10.9299 0.02358 0.54517 -3.49606 -3.96268 1.86409 -2.61933 -3.53909 
1.12497 -2.64827 -3.83855 2.9571 -2.35459 -2.69361 2.44919 -2.36751 -3.16251 
3.72692 -2.41852 -1.45261 3.39583 -2.27834 -2.11384 3.99998 -2.31918 0.01383 
3.93224 -2.2631 -0.73315 0.48601 2.25066 -3.97036 1.03264 1.61027 -3.86441 
1.64176 1.01027 -3.64755 2.37715 1.13073 -3.21701 2.91683 0.91806 -2.73717 
3.38248 1.09831 -2.13514 3.72047 0.97203 -1.46904 3.93264 1.103 -0.73102 
3.99992 0.92061 0.02526 3.92483 -10.9867 0.77183 3.71071 -10.8422 1.49354 
3.3623 -10.9829 2.16677 2.9046 -10.9215 2.75014 2.34975 -10.9585 3.23708 
1.73632 -10.8351 3.6035 1.08728 -11.0164 3.84939 0.76552 -9.85185 3.92606 
3.70832 -2.40724 1.49945 3.9251 -2.25836 0.77044 2.9009 -2.24119 2.75405 
3.3515 -2.23326 2.18344 2.02728 -2.75573 3.44821 2.48468 -2.05245 3.1347 
0.75188 -3.60736 3.9287 1.14269 -2.47261 3.83331 3.92189 1.10123 0.78663 
3.70058 0.96959 1.51845 3.351 1.09403 2.18422 2.88114 0.91095 2.77471 
2.33539 1.11346 3.24745 1.59742 0.95017 3.66719 0.99331 1.51146 3.87471 
0.55744 1.91642 3.96097 0.49282 21.7568 -3.96953 1.62708 22.9996 -3.65412 
1.03614 22.3695 -3.86347 2.91706 23.0854 -2.73692 2.36484 22.8705 -3.22607 
3.71028 23.0214 -1.4946 3.37648 22.8891 -2.14462 3.9999 23.0778 -0.02841 
3.92467 22.8842 -0.77261 0.51979 26.9399 -3.96608 1.2839 26.7399 -3.78835 
2.11377 26.9015 -3.39588 2.52051 26.1316 -3.10597 2.93463 26.3152 -2.71807 
3.36843 26.2864 -2.15724 3.71832 26.4622 -1.47449 3.92922 26.2994 -0.74917 
3.99998 26.3685 0.01184 0.55062 33.9394 -3.96192 1.97271 35.0239 -3.47972 
1.14169 34.811 -3.83361 3.08146 35.1197 -2.55042 2.58816 34.8824 -3.04982 
3.73846 34.839 -1.42265 3.48539 34.8596 -1.96266 3.99999 34.9623 0.00668 
3.93189 35.0007 -0.73504 3.72154 23.0373 1.46633 3.93176 22.8918 0.73573 
2.91935 23.0975 2.73448 3.38141 22.9046 2.13684 1.64466 23.007 3.64624 
2.37652 22.8746 3.21747 0.49487 21.7358 3.96927 1.0407 22.3613 3.86225 
3.92575 26.2931 0.76713 3.70601 26.448 1.50515 3.34197 26.263 2.198 
2.88063 26.2536 2.77524 2.47122 26.0537 3.14532 2.08148 26.8047 3.41576 
1.2917 26.6842 3.7857 0.68296 26.9319 3.94126 3.73438 34.8292 1.43333 
3.92972 34.9963 0.74652 3.0571 35.1329 2.57956 3.47547 34.8531 1.98018 
1.86379 34.7857 3.53925 2.44652 34.9947 3.16457 0.53235 34.5863 3.96442 
1.24874 34.8315 3.80009 0.52811 -1.66823 -3.96498 0.45204 -0.84639 -3.97438 
1.07292 -1.10687 -3.85342 1.78369 -1.62004 -3.58029 1.06326 -0.32748 -3.8561 
0.75907 -0.48267 -3.92732 1.56772 -0.81885 -3.67998 1.35017 -0.49395 -3.76524 
2.33715 -1.17613 -3.24619 2.91025 -1.38515 -2.74416 2.25846 -0.53158 -3.30142 
1.95131 -0.75918 -3.49176 2.87334 -0.66995 -2.78279 2.61278 -0.56887 -3.02876 
3.35142 -1.10734 -2.18357 3.71158 -1.36738 -1.49136 3.31205 -0.49745 -2.24284 
3.09024 -0.6604 -2.53977 3.69991 -0.6572 -1.52008 3.54448 -0.54599 -1.85383 
3.92279 -1.09408 -0.78213 4 -1.34705 -0.00312 3.9109 -0.48582 -0.83958 
3.81268 -0.64663 -1.20974 3.99995 -0.64705 -0.01926 3.98089 -0.53487 -0.39052 
0.35215 1.2147 -3.98447 0.60895 0.58968 -3.95338 1.09375 0.62285 -3.84756 
1.36124 0.41025 -3.76125 1.6086 0.31642 -3.6623 2.01162 0.35229 -3.45737 
2.34331 0.45551 -3.24174 2.63225 0.38019 -3.01185 2.89599 0.38569 -2.75921 
3.15088 0.35872 -2.46413 3.37306 0.45257 -2.15 3.5589 0.39074 -1.82599 
3.71344 0.41132 -1.48674 3.84224 0.37865 -1.1123 3.93218 0.46215 -0.73344 
3.98386 0.3871 -0.35896 3.99996 0.39629 0.01684 3.92995 -1.09117 0.7453 
3.70953 -1.35634 1.49646 3.93889 -0.48438 0.69651 3.98788 -0.64025 0.3112 
3.71222 -0.65148 1.48977 3.8347 -0.53622 1.13801 3.36409 -1.08533 2.16399 
2.90685 -1.3059 2.74777 3.38661 -0.48683 2.12859 3.57735 -0.64249 1.78958 
2.88925 -0.63887 2.76626 3.13069 -0.53105 2.48974 2.35752 -1.09709 3.23142 
1.80695 -1.5696 3.5686 2.29815 -0.43655 3.27391 2.65143 -0.62659 2.99499 
[...]
POINT_DATA 687
FIELD FieldData 2
displacement 3 687 float
0 0 0 0 0 -5.8 0 0 -5.8 
0 0 -5.8 0 0 -5.8 0 0 -5.8 
0 0 -5.8 0 0 -5.8 0 0 -5.8 
0 0 -5.8 0 0 -5.8 0 0 -5.8 
0 0 -5.8 0 0 -5.8 0 0 -5.8 
0 0 -5.8 0 0 -5.8 0 0 -5.8 
0 0 -5.8 0 0 -5.8 0 0 -5.8 
0 0 -5.8 0 0 -5.8 0 0 -5.8 
0 0 -5.8 0 0 -5.8 0 0 -5.8 
0 0 -5.8 0 0 -5.8 0 0 -5.8 
0 0 -5.8 0 0 -5.8 0 0 -5.8 
0 0 -5.8 0 0 -5.8 0 0 -5.8 
0 0 -5.8 0 0 -5.8 0 0 -5.8 
0 0 -5.8 0 0 -5.8 0 0 -5.8 
0 0 -5.8 0 0 -5.8 0 0 -5.8 
0 0 -5.8 0 0 -5.8 0 0 -5.8 
0 0 -5.8 0 0 -5.8 0 0 -5.8 
0 0 -5.8 0 0 -5.8 0 0 -5.8 
0 0 -5.8 0 0 -5.8 0 0 -5.8 
0 0 -5.8 0 0 -5.8 0 0 -5.8 
0 0 -5.8 0 0 -5.8 0 0 -5.8 
0 0 -5.8 0 0 -5.8 0 0 -5.8 
0 0 -5.8 0 0 -5.8 0 0 -5.8 
0 0 -5.8 0 0 -5.8 0 0 -5.8 
0 0 -5.8 0 0 -5.8 0 0 -5.8 
0 0 -5.8 0 0 -5.8 0 0 -5.8 
0 0 -5.8 0 0 -5.8 0 0 -5.8 
0 0 -5.8 0 0 -5.8 0 0 -5.8 
0 0 -5.8 0 0 -5.8 0 0 -5.8 
0 0 -5.8 0 0 -5.8 0 0 -5.8 
0 0 -5.8 0 0 -5.8 0 0 -5.8 
0 0 -5.8 0 0 -5.8 0 0 -5.8 
0 0 -5.8 0 0 -5.8 0 0 -5.8 
0 0 -5.8 0 0 -5.8 0 0 -5.8 
0 0 -5.8 0 0 -5.8 0 0 -5.8 
0 0 -5.8 0 0 -5.8 0 0 -5.8 
0 0 -5.8 0 0 -5.8 0 0 -5.8 
0 0 -5.8 0 0 -5.8 0 0 -5.8 
0 0 -5.8 0 0 -5.8 0 0 -5.8 
0 0 -5.8 0 0 -5.8 0 0 -5.8 
0 0 -5.8 0 0 -5.8 0 0 -5.8 
0 0 -5.8 0 0 -5.8 0 0 -5.8 
0 0 -5.8 0 0 -5.8 0 0 -5.8 
0 0 -5.8 0 0 -5.8 0 0 -5.8 
0 0 -5.8 0 0 -5.8 0 0 -5.8 
0 0 -5.8 0 0 -5.8 0 0 -5.8 
0 0 -5.8 0 0 -5.8 0 0 -5.8 
0 0 -5.8 0 0 -5.8 0 0 -5.8 
0 0 -5.8 0 0 -5.8 0 0 -5.8 
0 0 -5.8 0 0 -5.8 0 0 -5.8 
0 0 8.15 0 0 8.15 0 0 8.15 
0 0 8.15 0 0 8.15 0 0 8.15 
0 0 8.15 0 0 8.15 0 0 8.15 
0 0 8.15 0 0 8.15 0 0 8.15 
0 0 8.15 0 0 8.15 0 0 8.15 
0 0 8.15 0 0 8.15 0 0 8.15 
0 0 8.15 0 0 8.15 0 0 8.15 
0 0 8.15 0 0 8.15 0 0 8.15 
0 0 8.15 0 0 8.15 0 0 0 
0 0 0 0 0 0 0 0 0 
0 0 0 0 0 0 0 0 0 
0 0 0 0 0 0 0 0 0 
0 0 0 0 0 0 0 0 0 
0 0 0 0 0 0 0 0 0 
0 0 0 0 0 0 0 0 0 
0 0 0 0 -0.98459 1.44474 0 -1.38103 3.01811 
0 -0.92935 4.1446 0 -0.041372 3.71807 0 -0.373079 0.2 
0 -0.284986 3.02354 0 0.273573 2.85852 0 0.30645 1.2 
0 0.44672 1.2 0 0.68559 1.07463 0 0.173941 -0.8 
0 0.227001 -0.8 0 0.18755 -1.8 0 -0.654282 2.6408 
0 0.134341 2.97646 0 0.549591 2.15946 0 0.376423 0.991526 
0 0 0 0 0 0 0 0 0 
0 0 0 0 0 0 0 0 0 
0 0 0 0 0 0 0 0 0 
0 0 0 0 0 0 0 0 0 
0 0 0 0 0 0 0 0 0 
0 0 0 0 0 0 0 0 0 
0 0.42641 -1.38595 0 0.21484 -2.72608 0 -0.71681 -2.68301 
0 -1.20555 -1.21006 0 -0.056469 2.15 -0 -0.214772 1.15 
0 -0.360969 1.15 0 -0.48246 1.15 -0 -0.50653 1.15 
0 -0.565995 1.15 0 -0.695068 1.15 0 -0.901594 1.22405 
0 -0.120528 4.15 0 1.8319 -0.709452 0 0.961664 -2.11131 
0 0.178595 -1.83851 0 -0.04888 -0.900677 0 -0.933031 2.06806 
0 -0.78544 2.74383 0 -0.49795 3.46246 0 -0.694114 2.33587 
0 -0.606672 1.03608 0 -0.306666 0.2 0 -0.058481 1.15 
0 0.0884 1.31387 0 -0.081558 2.15 0 0.30416 -0.8 
0 0.33597 -1.17225 -0 0.172491 -1.8 0 1.32752 2.10542 
0 -0.137782 4.15 0 0.245402 2.14759 0 -0.410332 0.2 
0 -0.799511 0.730939 0 -0.03339 2.15 0 -0.976361 0.828282 
0 0.20265 -1.8 1.70079 -0.49815 0.43633 1.44918 -0.719877 0.774542 
0.994857 -0.761818 1.26123 1.89996 -0.387842 2.61297 3.07433 -0.214442 2.18492 
3.06942 -0.04408 1.35423 1.98874 -0.079006 1.62015 0.995283 -0.081443 2.82549 
1.30523 0.24001 2.12099 1.64951 0.54104 1.89967 2.74309 0.00985 0.362769 
1.79221 -0.234009 -0.069075 0.714987 -0.241508 0.91029 1.07325 -0.35611 0.6582 
1.03878 0.25339 -0.32866 0.676001 0.22443 -0.55698 1.71253 0.25046 0.63052 
0.563716 0.290689 -1.95311 1.24946 1.20687 -1.6669 1.27632 0.083244 -1.68982 
1.62076 -0.280462 -1.06914 2.8159 0.395088 -0.969396 2.27803 -0.582378 -0.451544 
2.10942 -0.88678 0.309663 3.65961 -0.709823 1.00046 0.781718 1.6793 0.134996 
2.20859 0.776542 0.700312 1.54684 1.3799 0.24812 3.31931 -0.354331 1.68743 
3.13117 0.113599 0.807082 0.591585 -0.884063 1.55994 1.19254 -0.680207 1.70113 
1.76053 -0.457838 1.88831 2.50993 -0.333677 1.89655 2.75673 -0.266181 2.20357 
2.23509 -1.1589 1.22923 1.55209 -1.23982 1.71837 2.76178 -1.04794 3.11207 
1.11595 -1.37501 2.55135 0.598214 -1.31804 3.27137 1.29182 -0.96722 3.87004 
2.10816 -0.246547 2.93384 3.13597 -0.534416 2.50016 0.683319 -0.283364 3.88862 
1.44769 -0.177601 3.57261 2.43547 -0.308211 2.47041 1.6974 -0.381122 2.37456 
1.16092 -0.448832 2.52624 0.494858 -0.540026 2.65255 0.470323 -0.1327 1.02723 
1.56693 -0.018379 0.149294 0.972188 -0.076371 0.63032 2.60579 -0.01315 0.20547 
2.324 -0.09153 -0.092758 0.651192 -1.10936 -1.68493 1.16997 -0.245849 -2.80597 
1.51981 -0.84619 -1.71475 2.07092 -0.55492 -0.980698 2.71604 0.140449 -1.97928 
3.08001 -0.020719 -0.737944 3.26381 0.157 0.119034 3.57936 0.5831 0.071657 
0.626833 0.379631 -2.28004 1.55733 0.635891 -1.32807 1.21603 0.497372 -2.00588 
2.04411 0.80547 0.019908 2.19436 0.754452 -0.80385 1.55606 0.28348 0.225865 
2.3298 0.110309 0.516146 0.45523 0.25815 -0.67556 0.954718 0.267509 -0.27613 
3.06247 0.071798 0.975303 2.02342 -0.389681 1.21092 2.69259 0.26153 2.12659 
1.48803 -0.631389 1.85911 0.644204 -0.870038 1.72111 1.14739 -0.12496 2.92776 
1.54974 0.711807 1.3918 2.20077 0.802189 0.859242 0.525669 0.516178 2.38627 
1.20827 0.604061 2.10423 0.185101 -0.03038 -1.23891 0.376161 -0.08114 -1.05774 
0.573344 -0.12799 -0.969226 0.662315 -0.18761 -0.765831 0.717173 -0.25128 -0.513871 
1.05775 -0.37617 -0.483285 1.1373 -0.4591 -0.308535 1.08916 -0.50627 -0.105635 
1.08718 -0.59803 0.11201 0.356385 1.53772 1.16865 1.02043 0.902608 2.10783 
0.596104 1.08124 2.29065 1.76346 0.458828 1.8058 1.34239 0.658977 2.06035 
2.68612 -0.006474 1.45834 2.21767 0.220143 1.5213 3.05748 -0.346637 1.89967 
2.97678 -0.223805 1.66403 0.264928 -0.928484 1.94592 0.522954 -0.825479 2.35242 
0.774224 -0.624376 2.72652 1.21666 -0.539968 2.41376 1.59009 -0.3919 2.35997 
2.0391 -0.323507 2.28514 2.41876 -0.295334 2.09581 2.71042 -0.272393 2.08725 
2.77884 -0.295852 2.19113 1.07409 -0.65598 0.306429 1.07891 -0.76621 0.561866 
0.908496 -0.77 0.705286 0.778759 -0.81591 0.864237 0.641702 -0.83695 1.00341 
0.494864 -0.88974 1.17553 0.258442 -0.81853 1.11642 0.388463 -1.23989 2.2126 
2.7057 -0.442099 2.35581 2.97838 -0.439626 2.17324 1.78316 -0.270949 2.18478 
2.24365 -0.375991 2.40446 1.25396 -0.005865 2.32759 1.37435 -0.20712 1.85752 
0.550246 0.117331 3.03283 0.656357 0.126823 1.93822 2.67241 -0.308755 2.29197 
2.37273 -0.36375 2.24236 1.99695 -0.374888 2.01578 1.55537 -0.439547 1.78192 
1.19896 -0.5193 1.71629 0.767424 -0.567239 1.37743 0.51191 -0.666818 1.78708 
0.298723 -0.673176 2.05974 0.22702 -0.079701 1.11953 0.704851 0.069509 0.970243 
0.453064 -0.002069 1.01347 1.49058 0.02993 0.454283 1.10574 0.067239 0.63059 
2.28887 -0.022421 0.093881 1.92358 -0.004589 0.29462 2.66945 0.00873 0.168998 
2.56941 -0.03928 0.066276 0.294374 -1.0014 0.098145 0.705038 -0.87961 0.21548 
1.24795 -0.744952 -0.187344 1.34294 -0.370319 0.398533 1.74097 -0.329408 -0.004796 
2.18371 -0.184071 -0.273538 2.64899 -0.036829 -0.302917 2.92584 0.077369 -0.114892 
3.00744 0.116489 0.135069 0.258512 0.40324 -1.86289 0.478691 0.387569 -0.895984 
0.322881 0.403961 -1.21115 0.700836 0.411949 -0.601585 0.737905 0.45417 -0.899146 
1.08475 0.54887 -0.429519 1.02263 0.524731 -0.594992 1.04742 0.54726 0.005821 
1.05306 0.52901 -0.200578 2.3161 0.118629 0.262659 2.58868 0.0383 0.285584 
1.49 0.251549 -0.126398 1.93655 0.1789 0.06316 0.699018 0.341219 -0.72905 
1.09589 0.32618 -0.336959 0.219942 0.289339 -0.76927 0.43754 0.340738 -0.694197 
2.93087 0.128368 0.386272 2.64785 0.058531 0.583768 2.17098 -0.055771 0.564765 
1.70071 -0.17367 0.265188 1.31024 -0.190369 -0.131446 1.22343 -0.537411 0.446437 
0.722274 -0.65336 0.141882 0.384381 -0.76305 0.354469 1.09205 0.57787 0.445508 
1.05676 0.543148 0.210178 0.689521 0.445622 0.60375 1.02812 0.562099 0.61204 
0.546363 0.49419 1.1008 0.642716 0.473259 0.87405 0.178902 0.496502 1.4087 
0.364832 0.469829 1.18897 0.25059 -0.137824 4.11498 0.217371 -0.125225 4.12438 
0.507715 -0.117429 4.00342 0.812434 -0.073347 3.73029 0.507112 -0.103814 4.0061 
0.364116 -0.113759 4.07732 0.701393 -0.113699 3.82998 0.61747 -0.114617 3.91524 
1.09123 -0.112682 3.39619 1.49761 -0.127989 2.89416 1.0516 -0.15895 3.45142 
0.876821 -0.130816 3.64176 1.47025 -0.181037 2.93279 1.27545 -0.172228 3.17876 
1.95615 -0.155806 2.33357 2.52012 -0.158808 1.85272 1.89068 -0.209529 2.41999 
1.66145 -0.194125 2.68977 2.40696 -0.216816 2.04456 2.18265 -0.20951 2.17455 
2.79245 -0.266327 1.9386 2.96375 -0.362544 2.04156 2.71368 -0.271144 2.02166 
2.5793 -0.23883 2.0008 2.85795 -0.342284 2.11153 2.82757 -0.310104 2.06393 
0.175129 -0.776295 2.76376 0.289951 -0.522787 3.38201 0.495554 -0.502977 3.29706 
0.605554 -0.36789 3.44934 0.719722 -0.31642 3.43206 0.936948 -0.35229 3.18229 
1.1301 -0.384259 2.93917 1.30834 -0.351682 2.80546 1.5161 -0.329357 2.61442 
1.74251 -0.295302 2.42267 1.9805 -0.285826 2.3 2.20126 -0.276689 2.16836 
2.3961 -0.27225 2.09888 2.58439 -0.273536 2.06692 2.70072 -0.279986 2.08476 
2.77929 -0.293974 2.12366 2.78916 -0.311864 2.17523 2.79926 -0.40806 2.20925 
2.53663 -0.445334 2.27007 2.74378 -0.382411 2.22115 2.83859 -0.36785 2.1666 
2.42777 -0.422167 2.21064 2.59527 -0.407721 2.2398 2.02107 -0.437309 1.99926 
1.56494 -0.456109 1.45223 1.99753 -0.428694 1.97573 2.24577 -0.429348 2.13827 
1.51902 -0.430735 1.43374 1.72903 -0.436716 1.71026 1.13713 -0.418983 0.96858 
0.827153 -0.409374 0.6314 1.10134 -0.386312 0.92609 1.33666 -0.417123 1.20501 
0.701596 -0.362072 0.51231 0.901561 -0.375813 0.7109 0.472688 -0.372498 0.33568 
0.231539 -0.181816 0.774714 0.46374 -0.322527 0.32828 0.595231 -0.338084 0.42136 
0.164264 -0.367143 0.21574 0.275508 -0.327263 0.24411 2.76095 -0.330349 2.22839 
2.66343 -0.344496 2.26027 2.53794 -0.369139 2.25944 2.36026 -0.385253 2.21062 
2.15525 -0.401425 2.10925 1.93845 -0.400873 1.93153 1.72784 -0.405145 1.68737 
1.52662 -0.392252 1.41053 1.31973 -0.37705 1.15732 1.1335 -0.405229 1.16946 
0.929255 -0.36491 0.904024 0.735156 -0.294974 0.51929 0.617045 -0.33946 0.588743 
0.494205 -0.483555 0.850607 0.283746 -0.535372 0.893751 0.218552 -0.664448 1.54983 
0.17921 0.02795 1.17 0.459732 0.074231 1.30276 0.258323 0.07428 1.34473 
0.708266 0.048759 1.38162 0.590932 0.058469 1.38602 1.07824 0.060859 0.99243 
0.906641 0.05894 1.18626 1.49363 0.03158 0.656141 1.26057 0.04624 0.860146 
1.8988 0.004441 0.30088 1.71527 0.011888 0.411864 2.28803 -0.00716 0.101953 
2.10436 -0.00034 0.175161 2.58033 -0.006941 0.073494 2.47081 -0.006432 0.063224 
2.70375 0.02787 0.150579 2.65639 0.002979 0.102248 0.105398 -0.057381 2.14429 
0.260778 -0.023738 2.11439 0.282378 -0.06682 2.10906 0.516137 -0.069589 2.01228 
0.578157 -0.033989 1.97321 0.675334 -0.056009 1.91121 0.757503 -0.035209 1.81459 
0.862609 -0.010161 1.68515 0.914582 -0.022921 1.63489 1.06521 -0.01852 1.45239 
1.1245 -0.004299 1.37494 1.27323 5.9e-05 1.18434 1.45763 0.010679 0.94255 
1.51672 0.016579 0.89422 1.62667 0.016479 0.71254 1.84098 0.011351 0.440217 
1.93275 0.00211 0.34961 2.12792 0.006509 0.194951 2.34917 0.011441 0.07876 
2.4719 0.010842 -0.050738 2.50869 0.021872 0.038443 2.63449 0.029661 0.048759 
2.7295 0.05246 0.012832 2.75401 0.052879 0.093389 2.79364 0.074079 0.1515 
2.90863 0.106791 0.139769 2.60131 0.063321 0.25813 2.68593 0.04628 0.217471 
2.34873 0.116609 0.248353 2.50429 0.087191 0.271675 1.91841 0.176041 0.0534 
2.12756 0.149219 0.171745 1.50007 0.218769 -0.321787 1.73076 0.192871 -0.066174 
1.07524 0.278148 -0.711069 1.24738 0.24439 -0.56412 0.749416 0.224239 -1.23009 
0.930062 0.281709 -0.865243 0.463288 0.31205 -1.17429 0.599762 0.250231 -1.27947 
0.176977 0.340669 -0.930162 0.267586 0.31921 -1.20677 2.77983 0.087129 0.203608 
2.69192 0.091339 0.248648 2.75618 0.10952 0.281002 2.54655 0.10931 0.272662 
2.3692 0.121059 0.244355 2.49212 0.114321 0.356374 2.14142 0.136841 0.131736 
1.85619 0.15868 -0.100284 1.94029 0.13624 -0.02155 1.63175 0.170971 -0.37975 
1.45653 0.172501 -0.60982 1.51152 0.157872 -0.57451 1.28989 0.174042 -0.82059 
1.07284 0.17696 -1.08651 1.11462 0.165859 -1.0419 0.885809 0.174369 -1.30706 
0.70648 0.175249 -1.49474 0.843242 0.162171 -1.35718 0.609486 0.175202 -1.58493 
0.493461 0.17268 -1.67159 0.517264 0.18922 -1.65693 0.294764 0.175162 -1.75497 
0.182018 0.18725 -1.78277 0.256344 -0.22221 -0.949473 0.211929 -0.112311 4.12602 
0.408937 -0.101808 4.05925 0.529138 -0.14871 3.88106 0.64082 -0.125759 3.90766 
0.776734 -0.14405 3.7687 0.950629 -0.169679 3.57894 1.13416 -0.202036 3.37334 
1.30487 -0.212643 3.16639 1.50167 -0.226088 2.9162 1.75132 -0.234021 2.58634 
1.98656 -0.24573 2.30873 2.18928 -0.244294 2.1786 2.40802 -0.246436 2.07864 
2.61045 -0.261858 2.04112 2.73501 -0.28261 2.06774 2.7951 -0.303442 2.10259 
2.82827 -0.328304 2.15307 2.77975 -0.356372 2.20907 2.67719 -0.369828 2.24952 
2.54846 -0.388421 2.24504 2.38579 -0.405934 2.21033 2.1353 -0.418437 2.08179 
1.90579 -0.419531 1.90736 1.70717 -0.419402 1.68556 1.50761 -0.411806 1.41395 
1.2655 -0.391208 1.11217 1.11701 -0.361572 0.92104 0.960307 -0.356052 0.75945 
0.7687 -0.332738 0.56787 0.612862 -0.310965 0.4255 0.514801 -0.292917 0.35242 
0.374815 -0.289679 0.27881 0.191179 -0.285925 0.21992 0.16475 0.020831 1.75605 
0.363481 0.03059 1.68939 0.50663 0.02792 1.61458 0.634108 -0.03042 1.7331 
0.813169 -0.04998 1.7681 0.972564 -0.0341 1.58017 1.12985 -0.024512 1.37848 
1.27836 -0.0054 1.17945 1.4375 0.007059 0.96531 1.67356 0.01664 0.64252 
1.9204 0.003941 0.323704 2.11475 0.00304 0.192288 2.32281 0.00281 0.092189 
2.52077 0.01181 0.054168 2.6362 0.014031 0.068914 2.70952 0.029652 0.113206 
2.75518 0.05521 0.163618 2.7166 0.071838 0.22003 2.62245 0.08176 0.258407 
2.47325 0.10335 0.262665 2.31399 0.124128 0.22493 2.12516 0.142882 0.137821 
1.93721 0.159969 0.016466 1.68445 0.176719 -0.29561 1.43846 0.18297 -0.62976 
1.22912 0.18376 -0.89646 1.09189 0.183679 -1.07123 0.916377 0.180701 -1.2785 
0.750615 0.177639 -1.45836 0.63887 0.174169 -1.57107 0.547949 0.16267 -1.6431 
0.392315 0.169121 -1.64761 0.194826 0.17926 -1.65995 2.89482 -0.356556 1.62193 
2.71228 0.14617 2.46742 2.56205 -0.21236 0.65051 2.46137 0.2204 1.17411 

thickness 1 687 float
0.907029 0.907029 0.907029 0.907029 0.907029 0.907029 0.907029 0.907029 0.907029 
0.907029 0.907029 0.907029 0.907029 0.907029 0.907029 0.907029 0.907029 0.907029 
0.907029 0.907029 0.907029 0.907029 0.907029 0.907029 0.907029 0.907029 0.907029 
0.907029 0.907029 0.907029 0.907029 0.907029 0.907029 0.907029 0.907029 0.907029 
0.907029 0.907029 0.907029 0.907029 0.907029 0.907029 0.907029 0.907029 0.907029 
0.907029 0.907029 0.907029 0.907029 0.907029 0.907029 0.907029 0.907029 0.907029 
0.907029 0.907029 0.907029 0.907029 0.907029 0.907029 0.907029 0.907029 0.907029 
0.907029 0.907029 0.907029 0.907029 0.907029 0.907029 0.907029 0.907029 0.907029 
0.907029 0.907029 0.907029 0.907029 0.907029 0.907029 0.907029 0.907029 0.907029 
0.907029 0.907029 0.907029 0.907029 0.907029 0.907029 0.907029 0.907029 0.907029 
0.907029 0.907029 0.907029 0.907029 0.907029 0.907029 0.907029 0.907029 0.907029 
0.907029 0.907029 0.907029 0.907029 0.907029 0.907029 0.907029 0.907029 0.907029 
0.907029 0.907029 0.907029 0.907029 0.907029 0.907029 0.907029 0.907029 0.907029 
0.907029 0.907029 0.907029 0.907029 0.907029 0.907029 0.907029 0.907029 0.907029 
0.907029 0.907029 0.907029 0.907029 0.907029 0.907029 0.907029 0.907029 0.907029 
0.907029 0.907029 0.907029 0.907029 0.907029 0.907029 0.907029 0.907029 0.907029 
0.907029 0.907029 0.907029 0.907029 0.907029 0.907029 0.907029 0.907029 0.907029 
0.907029 0.907029 0.907029 0.907029 0.907029 0.907029 0.907029 0.907029 0.907029 
0.907029 0.907029 0.907029 0.907029 0.907029 0.907029 0.907029 0.907029 0.907029 
0.907029 0.907029 0.907029 0.907029 0.907029 0.685377 0.777327 0.618347 0.689353 
0.628478 0.712158 0.676155 0.694108 0.683855 0.772073 0.710715 0.789338 0.7159 
0.790284 0.71873 0.786186 0.707794 0.775264 0.726224 0.744706 0.633649 0.462788 
0.367415 0.350662 0.574135 0.431759 0.447284 0.500363 0.50897 0.5298 0.594716 
0.603551 0.597441 0.362057 0.395811 0.498212 0.644207 0.733179 0.674091 0.745067 
0.677416 0.756648 0.715584 0.723654 0.699658 0.779779 0.709801 0.777095 0.696301 
0.716363 0.70819 0.697265 0.687735 0.73064 0.681479 0.586717 0.423932 0.355691 
0.359991 0.583605 0.571457 0.57599 0.556405 0.53519 0.51786 0.508766 0.505122 
0.604654 0.340609 0.359762 0.448665 0.587706 0.515337 0.526945 0.5586 0.451322 
0.479654 0.557722 0.565314 0.566501 0.573641 0.595605 0.590503 0.593496 0.372083 
0.539433 0.375533 0.480727 0.383 0.529523 0.371316 0.481211 0.566674 0.519747 
0.514912 0.632433 0.753668 0.660516 0.611911 0.447901 0.522807 0.585141 0.713117 
0.652735 0.599713 0.596972 0.63953 0.637685 0.705582 0.422166 0.363178 0.45439 
0.499495 0.421701 0.50178 0.542462 0.457326 0.35612 0.508596 0.413209 0.572216 
0.541218 0.521428 0.561382 0.63923 0.745231 0.740367 0.524019 0.541316 0.429374 
0.502002 0.428095 0.377789 0.485191 0.525609 0.352593 0.389862 0.720067 0.596202 
0.500415 0.453886 0.5829 0.653338 0.616787 0.740558 0.713192 0.36711 0.38443 
0.406446 0.502702 0.430179 0.537686 0.573359 0.463763 0.453938 0.521668 0.483108 
0.546197 0.515624 0.689194 0.736338 0.611308 0.64925 0.540559 0.507623 0.435828 
0.416068 0.382041 0.387636 0.528765 0.51853 0.465869 0.49107 0.512235 0.562615 
0.543091 0.593472 0.61404 0.599075 0.593418 0.644939 0.629627 0.359827 0.426733 
0.410076 0.568818 0.521249 0.660893 0.650732 0.658242 0.674423 0.516371 0.53604 
0.575445 0.629321 0.679208 0.742857 0.803288 0.777847 0.768983 0.661393 0.624658 
0.663097 0.635791 0.65777 0.614996 0.648776 0.517808 0.622731 0.648853 0.555508 
0.613113 0.435414 0.532242 0.365584 0.41476 0.755711 0.76379 0.70654 0.618802 
0.561549 0.503065 0.475148 0.457161 0.570923 0.598674 0.582633 0.661583 0.632589 
0.764206 0.715542 0.761159 0.7524 0.36842 0.424997 0.456645 0.560361 0.577475 
0.638879 0.643434 0.659132 0.655965 0.498785 0.611352 0.59086 0.637996 0.604424 
0.606691 0.618766 0.629473 0.652086 0.77958 0.760567 0.69162 0.736104 0.62573 
0.66239 0.600376 0.605625 0.659853 0.644521 0.640868 0.576243 0.560074 0.459744 
0.43289 0.396606 0.610219 0.654117 0.64674 0.623918 0.588464 0.634703 0.565191 
0.613577 0.489226 0.609634 0.619143 0.592488 0.664456 0.617185 0.716739 0.694835 
0.702946 0.699638 0.748824 0.736833 0.778972 0.764632 0.789429 0.761604 0.818892 
0.798185 0.804613 0.813625 0.759648 0.717667 0.782973 0.792833 0.749716 0.763205 
0.523614 0.525652 0.533028 0.560033 0.616711 0.642885 0.638107 0.672656 0.717263 
0.751111 0.783273 0.81031 0.803357 0.795395 0.782971 0.774584 0.768847 0.723098 
0.700285 0.74726 0.743239 0.738098 0.741574 0.716648 0.64783 0.74046 0.736935 
0.698868 0.722338 0.628785 0.541321 0.658486 0.674555 0.633294 0.646219 0.570319 
0.460713 0.607429 0.625261 0.566835 0.585445 0.760673 0.758583 0.75849 0.759977 
0.756821 0.754272 0.71647 0.673844 0.631661 0.588114 0.593417 0.568202 0.541599 
0.498757 0.478027 0.463393 0.567759 0.584826 0.571964 0.598993 0.586292 0.624597 
0.616585 0.690649 0.655972 0.740737 0.710346 0.762918 0.766151 0.757143 0.762465 
0.75866 0.75638 0.585025 0.484471 0.585942 0.592718 0.59153 0.650715 0.682335 
0.581091 0.691644 0.700866 0.670765 0.71383 0.732588 0.679052 0.749423 0.771578 
0.74884 0.7669 0.761786 0.726885 0.755157 0.754384 0.733284 0.745048 0.7405 
0.710533 0.764138 0.75912 0.774264 0.769809 0.756053 0.778912 0.716298 0.732131 
0.643313 0.686195 0.657906 0.637616 0.589573 0.616669 0.594865 0.590104 0.741745 
0.754812 0.73357 0.760229 0.767663 0.730081 0.774781 0.779799 0.755394 0.75753 
0.739764 0.683184 0.723551 0.713403 0.678932 0.703968 0.688615 0.582802 0.674473 
0.633228 0.604141 0.604241 0.585515 0.455952 0.583107 0.57145 0.591549 0.644426 
0.700124 0.719132 0.695651 0.722085 0.754049 0.802738 0.806899 0.81504 0.807438 
0.794629 0.782323 0.771445 0.761651 0.754309 0.755194 0.752291 0.751146 0.747446 
0.745378 0.730591 0.703637 0.675249 0.642281 0.647765 0.635856 0.621605 0.575283 
0.544597 0.525824 0.571757 0.574878 0.577786 0.604909 0.650484 0.671615 0.662452 
0.69074 0.712147 0.740885 0.761449 0.77031 0.765632 0.760774 0.757255 0.754406 