# vtk DataFile Version 3.0
vtk output
ASCII
DATASET UNSTRUCTURED_GRID
POINTS 687 float
5 7 10 5 7 10 5 8 11.25 
5 8.25 11 5 8 10 5 7 11.25 
5 7.5 13 5 8 12.5 5 7 10.3125 
5 7 10.625 5 7 10.9375 5 7.38766 11.25 
5 7.64592 11.25 5 7.80052 11.25 5 7.90878 11.25 
5 8.01755 11.158 5 8.07322 11.0732 5 8.15798 11.0176 
5 8.25 10.1644 5 8.25 10.3763 5 8.25 10.5485 
5 8.25 10.6871 5 8.25 10.8026 5 8.25 10.9045 
5 7.74324 10 5 7.41786 10 5 7 11.6875 
5 7 12.125 5 7 12.5625 5 7.30926 13 
5 7.68405 12.9649 5 7.85355 12.8536 5 7.96489 12.684 
5 8 12.3065 5 8 12.1233 5 8 11.9567 
5 8 11.8086 5 8 11.6771 5 8 11.5591 
5 8 11.4509 5 8 11.3489 5 7.93205 11.0425 
5 7.80734 11.0245 5 7.67859 10.99 5 7.51824 10.9746 
5 7.32515 10.9611 5 8.01086 10.2002 5 8.03769 10.3933 
5 8.06323 10.5667 5 8.09469 10.7162 5 8.13242 10.8231 
5 8.14712 10.922 5 7.39469 10.6822 5 7.65901 10.6508 
5 7.8705 10.6089 5 7.93308 10.788 5 7.93412 10.9257 
5 7.7282 10.8379 5 7.82322 10.9294 5 7.54704 10.8316 
5 8.04809 10.9431 5 8.03786 10.8514 5 7.44218 10.3424 
5 7.75573 10.2431 5 7.82664 10.4299 5 7.64261 10.4744 
5 7.91347 11.1466 5 7.79547 11.136 5 7.66053 11.123 
5 7.52214 11.1159 5 7.44943 11.7066 5 7.68075 11.6735 
5 7.84745 11.667 5 7.40022 12.1904 5 7.64784 12.1371 
5 7.83294 12.1302 5 7.85639 12.4875 5 7.71852 12.5169 
5 7.5621 12.5627 5 7.35291 12.6213 5 7.84497 12.3142 
5 7.69057 12.3325 5 7.55096 12.3619 5 7.62604 12.7508 
5 7.76505 12.6851 5 7.86211 12.6189 5 7.49298 12.7907 
5 7.85524 11.8031 5 7.83896 11.9463 5 7.6677 11.8951 
5 7.73456 11.7906 5 7.8089 11.3764 5 7.85382 11.5144 
5 7.6916 11.5296 5 7.67156 11.3874 5 7.56029 11.5433 
5 7.53983 11.3935 5 7.90972 11.3537 5 7.92118 11.4397 
5 24 8 5 24 9 5 19.75 8 
5 16 9 5 16 11 5 11.25 9 
5 11.25 11 5 8.25 9.923 5 0 13 
5 0 10 5 7 13 0 8.1543 11.019 
0 8.07322 11.0732 0 8.01904 11.1543 0 8 11.25 
2.5 8.25 11 2.5 8.15432 11.019 2.5 8.07324 11.0732 
2.5 8.01903 11.1543 2.5 8 11.25 5 8.15434 11.019 
5 8.01902 11.1543 0 7.96192 12.6914 0 7.85355 12.8536 
0 7.6914 12.9619 2.5 8 12.5 2.5 7.96192 12.6914 
2.5 7.85355 12.8536 2.5 7.6914 12.9619 2.5 7.5 13 
5 7.96192 12.6914 5 7.6914 12.9619 0 24 9 
0 24 8 0 16 9 0 16 11 
0 0 10 0 0 13 0 8.25 11 
0 8 12.5 0 7.5 13 0 26 8 
7 26 8 7 24 8 7 19.75 8 
7 16 9 7 11.25 9 7 8 10 
7 0 10 7 -2 10 0 -2 10 
0 0 -11 0 0 -8 0 -2 -8 
5 -2 -8 7 -2 -8 5 0 -8 
5 0 -11 5 8 -11 5 8 -8 
7 8 -8 5 11.25 -11 5 11.25 -9 
7 11.25 -9 5 16 -11 5 16 -9 
7 16 -9 5 19.75 -11 5 19.75 -10 
7 19.75 -10 0 24 -11 0 24 -10 
5 24 -10 5 24 -11 0 26 -10 
5 26 -10 7 26 -10 0 -12 -4 
0 -12 4 0.59691 -12 -3.95521 1.23343 -12 -3.80508 
1.86684 -12 -3.53764 2.4031 -12 -3.19767 2.82877 -12 -2.82808 
3.32044 -12 -2.2304 3.73551 -12 -1.43038 3.93533 -12 -0.71638 
3.99986 -12 0.03336 3.92368 -12 0.77765 3.70276 -12 1.51312 
3.35693 -12 2.17509 2.89656 -12 2.75861 2.35395 -12 3.23403 
1.75721 -12 3.59335 1.15512 -12 3.82958 0.56093 -12 3.96047 
0 36 4 0 -10.743 4 0 -8.8877 4 
0 -6.64749 4 0 -4.45202 4 0 -0.91936 4 
0 4.14518 4 0 6.58748 4 0 9.66416 4 
0 12.0556 4 0 14.4989 4 0 17.6266 4 
0 20.3196 4 0 24.9607 4 0 29.4472 4 
0 31.7102 4 0 33.6144 4 0 35.0694 4 
0 36 -4 0.59993 36 3.95476 1.23847 36 3.80344 
1.87132 36 3.53528 2.4058 36 3.19564 2.82825 36 2.8286 
3.31559 36 2.2376 3.73171 36 1.44025 3.93289 36 0.72964 
3.99999 36 0.00729 3.93339 36 -0.72693 3.7303 36 -1.44391 
3.33354 36 -2.21076 2.85148 36 -2.80519 2.28639 36 -3.28214 
1.63682 36 -3.64977 1.11455 36 -3.84158 0.56461 36 -3.95995 
0 34.661 -4 0 32.5627 -4 0 29.9725 -4 
0 27.9548 -4 0 24.936 -4 0 20.302 -4 
0 17.5542 -4 0 14.3512 -4 0 11.9689 -4 
0 9.52824 -4 0 6.40852 -4 0 3.7104 -4 
0 -0.45165 -4 0 -4.9424 -4 0 -7.504 -4 
0 -9.50153 -4 0 -11.0253 -4 0 2.06879 -4 
0 1.24817 -4 0 0.49795 -4 0 2.22891 4 
0 0.81573 4 0 -0.2654 4 0 21.9979 -4 
0 23.2408 -4 0 24.3368 -4 0 21.9532 4 
0 23.1639 4 0 24.2218 4 0 -2.85941 -4 
0 -1.4497 -4 0 -2.71248 4 0 -1.53432 4 
0 26.5263 -4 0 25.5061 -4 0 27.2927 4 
0 25.7706 4 2.28036 11.9291 -3.28633 1.91748 7.67834 -3.51045 
1.39183 4.80584 -3.75004 3.10004 4.74612 -2.5278 3.99902 4.81728 0.08855 
3.99929 11.9788 0.07526 3.01126 4.7799 2.63293 1.3206 4.94069 3.77571 
1.85925 7.75999 3.54164 2.26005 12.0455 3.30033 4 19.1687 0.00563 
3.05144 19.2212 -2.58625 1.3639 19.1697 -3.76029 1.9216 16.2623 -3.5082 
1.88377 16.3456 3.52866 1.37297 19.2307 3.75698 3.06558 19.3026 2.56948 
0.86913 -9.0538 -3.90444 1.36253 -6.45576 -3.76079 2.03706 -9.19679 -3.44244 
3.04279 -9.69606 -2.59642 3.11128 -6.58598 -2.51395 3.7595 -9.34266 -1.36607 
3.99985 -9.72826 0.03484 3.99986 -6.60452 0.03337 1.03898 -4.23036 -3.86271 
3.0157 -3.54152 -2.62784 2.05455 -4.03413 -3.43203 3.99994 -3.50264 0.0214 
3.74655 -3.86932 -1.40121 1.00023 2.98374 -3.87292 1.99481 2.63411 -3.46709 
2.98987 2.17564 -2.65719 3.74575 2.45304 -1.40334 3.9997 2.15958 0.04896 
3.72707 -9.3715 1.45222 2.9589 -9.71773 2.69164 3.0344 -6.63176 2.60623 
1.83862 -9.28024 3.55239 0.83367 -8.38579 3.91216 1.43719 -6.66098 3.73289 
2.82548 -3.41986 2.83137 3.71431 -3.8546 1.48454 0.80231 -4.99714 3.91871 
1.77296 -4.35265 3.58561 3.70922 2.45004 1.49723 2.93365 2.16411 2.71913 
1.91758 2.60035 3.5104 0.80755 2.87316 3.91763 0.98341 21.0045 -3.87723 
2.96254 21.8143 -2.68763 1.97163 21.3626 -3.48032 4 21.8263 -0.0017 
3.72906 21.5439 -1.4471 0.84747 28.4195 -3.90919 1.34399 31.0003 -3.76745 
1.95439 28.5374 -3.49004 2.87262 27.5375 -2.78353 3.07745 30.8031 -2.55525 
3.72995 27.9379 -1.4448 3.99996 27.5711 0.01726 3.99996 30.7106 0.01826 
1.04168 33.1935 -3.86198 3.05671 33.7806 -2.58002 2.08878 33.3701 -3.4113 
3.99999 33.7855 0.01071 3.75229 33.4182 -1.38575 2.97043 21.8482 2.67891 
3.73117 21.5642 1.44167 0.98998 21.028 3.87556 1.97903 21.3942 3.47613 
3.71189 27.9005 1.4906 2.82811 27.4453 2.82874 3.04412 30.7018 2.59487 
1.93597 28.3735 3.50029 0.86823 28.146 3.90463 1.3057 30.7039 3.78089 
3.02368 33.7595 2.61866 3.74268 33.397 1.41152 0.86284 33.1639 3.90583 
2.02665 33.2848 3.44858 0.53032 -10.5458 -3.96469 1.24149 -10.7951 -3.80246 
1.85972 -10.739 -3.54139 2.44302 -10.9691 -3.16728 3.06586 -11.1071 -2.56914 
3.48459 -10.8306 -1.96409 3.7465 -10.7956 -1.40133 3.93436 -10.9762 -0.72168 
3.99993 -10.9299 0.02358 0.54517 -3.49606 -3.96268 1.86409 -2.61933 -3.53909 
1.12497 -2.64827 -3.83855 2.9571 -2.35459 -2.69361 2.44919 -2.36751 -3.16251 
3.72692 -2.41852 -1.45261 3.39583 -2.27834 -2.11384 3.99998 -2.31918 0.01383 
3.93224 -2.2631 -0.73315 0.48601 2.25066 -3.97036 1.03264 1.61027 -3.86441 
1.64176 1.01027 -3.64755 2.37715 1.13073 -3.21701 2.91683 0.91806 -2.73717 
3.38248 1.09831 -2.13514 3.72047 0.97203 -1.46904 3.93264 1.103 -0.73102 
3.99992 0.92061 0.02526 3.92483 -10.9867 0.77183 3.71071 -10.8422 1.49354 
3.3623 -10.9829 2.16677 2.9046 -10.9215 2.75014 2.34975 -10.9585 3.23708 
1.73632 -10.8351 3.6035 1.08728 -11.0164 3.84939 0.76552 -9.85185 3.92606 
3.70832 -2.40724 1.49945 3.9251 -2.25836 0.77044 2.9009 -2.24119 2.75405 
3.3515 -2.23326 2.18344 2.02728 -2.75573 3.44821 2.48468 -2.05245 3.1347 
0.75188 -3.60736 3.9287 1.14269 -2.47261 3.83331 3.92189 1.10123 0.78663 
3.70058 0.96959 1.51845 3.351 1.09403 2.18422 2.88114 0.91095 2.77471 
2.33539 1.11346 3.24745 1.59742 0.95017 3.66719 0.99331 1.51146 3.87471 
0.55744 1.91642 3.96097 0.49282 21.7568 -3.96953 1.62708 22.9996 -3.65412 
1.03614 22.3695 -3.86347 2.91706 23.0854 -2.73692 2.36484 22.8705 -3.22607 
3.71028 23.0214 -1.4946 3.37648 22.8891 -2.14462 3.9999 23.0778 -0.02841 
3.92467 22.8842 -0.77261 0.51979 26.9399 -3.96608 1.2839 26.7399 -3.78835 
2.11377 26.9015 -3.39588 2.52051 26.1316 -3.10597 2.93463 26.3152 -2.71807 
3.36843 26.2864 -2.15724 3.71832 26.4622 -1.47449 3.92922 26.2994 -0.74917 
3.99998 26.3685 0.01184 0.55062 33.9394 -3.96192 1.97271 35.0239 -3.47972 
1.14169 34.811 -3.83361 3.08146 35.1197 -2.55042 2.58816 34.8824 -3.04982 
3.73846 34.839 -1.42265 3.48539 34.8596 -1.96266 3.99999 34.9623 0.00668 
3.93189 35.0007 -0.73504 3.72154 23.0373 1.46633 3.93176 22.8918 0.73573 
2.91935 23.0975 2.73448 3.38141 22.9046 2.13684 1.64466 23.007 3.64624 
2.37652 22.8746 3.21747 0.49487 21.7358 3.96927 1.0407 22.3613 3.86225 
3.92575 26.2931 0.76713 3.70601 26.448 1.50515 3.34197 26.263 2.198 
2.88063 26.2536 2.77524 2.47122 26.0537 3.14532 2.08148 26.8047 3.41576 
1.2917 26.6842 3.7857 0.68296 26.9319 3.94126 3.73438 34.8292 1.43333 
3.92972 34.9963 0.74652 3.0571 35.1329 2.57956 3.47547 34.8531 1.98018 
1.86379 34.7857 3.53925 2.44652 34.9947 3.16457 0.53235 34.5863 3.96442 
1.24874 34.8315 3.80009 0.52811 -1.66823 -3.96498 0.45204 -0.84639 -3.97438 
1.07292 -1.10687 -3.85342 1.78369 -1.62004 -3.58029 1.06326 -0.32748 -3.8561 
0.75907 -0.48267 -3.92732 1.56772 -0.81885 -3.67998 1.35017 -0.49395 -3.76524 
2.33715 -1.17613 -3.24619 2.91025 -1.38515 -2.74416 2.25846 -0.53158 -3.30142 
1.95131 -0.75918 -3.49176 2.87334 -0.66995 -2.78279 2.61278 -0.56887 -3.02876 
3.35142 -1.10734 -2.18357 3.71158 -1.36738 -1.49136 3.31205 -0.49745 -2.24284 
3.09024 -0.6604 -2.53977 3.69991 -0.6572 -1.52008 3.54448 -0.54599 -1.85383 
3.92279 -1.09408 -0.78213 4 -1.34705 -0.00312 3.9109 -0.48582 -0.83958 
3.81268 -0.64663 -1.20974 3.99995 -0.64705 -0.01926 3.98089 -0.53487 -0.39052 
0.35215 1.2147 -3.98447 0.60895 0.58968 -3.95338 1.09375 0.62285 -3.84756 
1.36124 0.41025 -3.76125 1.6086 0.31642 -3.6623 2.01162 0.35229 -3.45737 
2.34331 0.45551 -3.24174 2.63225 0.38019 -3.01185 2.89599 0.38569 -2.75921 
3.15088 0.35872 -2.46413 3.37306 0.45257 -2.15 3.5589 0.39074 -1.82599 
3.71344 0.41132 -1.48674 3.84224 0.37865 -1.1123 3.93218 0.46215 -0.73344 
3.98386 0.3871 -0.35896 3.99996 0.39629 0.01684 3.92995 -1.09117 0.7453 
3.70953 -1.35634 1.49646 3.93889 -0.48438 0.69651 3.98788 -0.64025 0.3112 
3.71222 -0.65148 1.48977 3.8347 -0.53622 1.13801 3.36409 -1.08533 2.16399 
2.90685 -1.3059 2.74777 3.38661 -0.48683 2.12859 3.57735 -0.64249 1.78958 
2.88925 -0.63887 2.76626 3.13069 -0.53105 2.48974 2.35752 -1.09709 3.23142 
1.80695 -1.5696 3.5686 2.29815 -0.43655 3.27391 2.65143 -0.62659 2.99499 
[...]
POINT_DATA 687
FIELD FieldData 2
displacement 3 687 float
0 0 0 0 0 -0.4 0 0 -0.4 
0 0 -0.4 0 0 -0.4 0 0 -0.4 
0 0 -0.4 0 0 -0.4 0 0 -0.4 
0 0 -0.4 0 0 -0.4 0 0 -0.4 
0 0 -0.4 0 0 -0.4 0 0 -0.4 
0 0 -0.4 0 0 -0.4 0 0 -0.4 
0 0 -0.400001 0 0 -0.4 0 0 -0.4 
0 0 -0.4 0 0 -0.4 0 0 -0.4 
0 0 -0.4 0 0 -0.4 0 0 -0.4 
0 0 -0.4 0 0 -0.4 0 0 -0.4 
0 0 -0.4 0 0 -0.4 0 0 -0.4 
0 0 -0.4 0 0 -0.4 0 0 -0.4 
0 0 -0.4 0 0 -0.4 0 0 -0.4 
0 0 -0.4 0 0 -0.4 0 0 -0.4 
0 0 -0.4 0 0 -0.4 0 0 -0.4 
0 0 -0.4 0 0 -0.399999 0 0 -0.4 
0 0 -0.4 0 0 -0.4 0 0 -0.4 
0 0 -0.4 0 0 -0.4 0 0 -0.4 
0 0 -0.4 0 0 -0.4 0 0 -0.4 
0 0 -0.4 0 0 -0.4 0 0 -0.4 
0 0 -0.4 0 0 -0.4 0 0 -0.4 
0 0 -0.4 0 0 -0.4 0 0 -0.4 
0 0 -0.4 0 0 -0.4 0 0 -0.4 
0 0 -0.4 0 0 -0.4 0 0 -0.4 
0 0 -0.4 0 0 -0.4 0 0 -0.4 
0 0 -0.4 0 0 -0.4 0 0 -0.4 
0 0 -0.4 0 0 -0.4 0 0 -0.4 
0 0 -0.4 0 0 -0.4 0 0 -0.4 
0 0 -0.4 0 0 -0.4 0 0 -0.4 
0 0 -0.4 0 0 -0.4 0 0 -0.4 
0 0 -0.4 0 0 -0.4 0 0 -0.4 
0 0 -0.4 0 0 -0.4 0 0 -0.4 
0 0 -0.4 0 0 -0.4 0 0 -0.4 
0 0 -0.4 0 0 -0.4 0 0 -0.4 
0 0 -0.4 0 0 -0.4 0 0 -0.4 
0 0 -0.4 0 0 -0.400001 0 0 -0.4 
0 0 -0.4 0 0 -0.4 0 0 -0.4 
0 0 -0.4 0 0 -0.4 0 0 -0.4 
0 0 -0.4 0 0 -0.4 0 0 -0.4 
0 0 -0.4 0 0 -0.4 0 0 -0.4 
0 0 -0.4 0 0 -0.4 0 0 -0.4 
0 0 -0.4 0 0 -0.4 0 0 -0.4 
0 0 -0.4 0 0 -0.4 0 0 -0.4 
0 0 -0.4 0 0 -0.4 0 0 -0.4 
0 0 -0.4 0 0 -0.4 0 0 -0.4 
0 0 -0.4 0 0 -0.4 0 0 -0.4 
0 0 -0.4 0 0 -0.4 0 0 -0.4 
0 0 -0.4 0 0 -0.4 0 0 -0.4 
0 0 -0.4 0 0 -0.4 0 0 -0.4 
0 0 -0.4 0 0 -0.4 0 0 -0.4 
0 0 1.4 0 0 1.4 0 0 1.4 
0 0 1.4 0 0 1.4 0 0 1.4 
0 0 1.4 0 0 1.4 0 0 1.4 
0 0 1.4 0 0 1.4 0 0 1.4 
0 0 1.4 0 0 1.4 0 0 1.4 
0 0 1.4 0 0 1.4 0 0 1.4 
0 0 1.4 0 0 1.4 0 0 1.4 
0 0 1.4 0 0 1.4 0 0 1.4 
0 0 1.4 0 0 1.4 0 0 0 
0 0 0 0 0 0 0 0 0 
0 0 0 0 0 0 0 0 0 
0 0 0 0 0 0 0 0 0 
0 0 0 0 0 0 0 0 0 
0 0 0 0 0 0 0 0 0 
0 0 0 0 0 0 0 0 0 
0 0 0 0 -0.07677 0.652841 0 -0.117428 1.16668 
0 -0.127619 1.55459 0 -0.135464 1.75917 0 -0.09135 1.93997 
0 -0.008497 1.98838 0 0.007915 1.98519 0 0.021662 2.05745 
0 -0.00142 1.85023 0 -0.0243 2.06026 0 -0.00948 1.99239 
0 0.01115 2.0029 0 0.09078 1.93955 0 0.135669 1.6955 
0 0.118519 1.39841 0 0.109569 0.989667 0 0.060852 0.488055 
0 0 0 0 0 0 0 0 0 
0 0 0 0 0 0 0 0 0 
0 0 0 0 0 0 0 0 0 
0 0 0 0 0 0 0 0 0 
0 0 0 0 0 0 0 0 0 
0 0 0 0 0 0 0 0 0 
0 0.082149 -0.67683 0 0.108818 -1.26878 0 0.136869 -1.63466 
0 0.13229 -1.79253 0 0.09144 -1.94678 0 0.012258 -2.00549 
0 -0.008369 -1.99086 0 -0.02403 -2.06126 0 -0.00077 -1.8515 
0 0.023298 -2.05944 0 0.008261 -1.99183 0 -0.012309 -2.00247 
0 -0.082584 -1.95616 0 -0.136729 -1.74124 0 -0.121001 -1.4279 
0 -0.111889 -1.01972 0 -0.06279 -0.507439 0 -0.03718 -1.98844 
0 -0.050995 -1.98382 0 -0.064411 -1.98429 0 -0.03391 1.99767 
0 -0.058557 1.98762 0 -0.079367 1.96533 0 0.038069 -1.99184 
0 0.05949 -1.98939 0 0.080462 -1.96816 0 0.036 1.98848 
0 0.056839 1.98822 0 0.07723 1.96816 0 -0.119778 -1.87381 
0 -0.100039 -1.9266 0 -0.119582 1.89654 0 -0.10178 1.92348 
0 0.116471 -1.88569 0 0.101301 -1.93062 0 0.125398 1.8443 
0 0.104552 1.91835 1.25148 -0.0001 -1.61795 0.971552 0.012317 -1.72592 
0.724023 -0.003938 -1.86735 1.62441 -0.005198 -1.26745 2.08478 -0.009063 0.038529 
1.99053 -0.00063 0.021123 1.58512 -0.004645 1.3152 0.69 -0.003036 1.87165 
0.945315 0.012042 1.73483 1.23798 -0.00161 1.62226 2.08725 0.007879 0.000619 
1.60476 0.004261 -1.29686 0.711886 0.003552 -1.87518 0.971536 -0.01287 -1.72557 
0.958204 -0.014021 1.73432 0.715838 0.00259 1.87132 1.61022 0.003618 1.28725 
0.245548 -0.113065 -1.11491 0.574159 -0.130868 -1.49256 0.578858 -0.107376 -0.976673 
0.732192 -0.110648 -0.629706 1.29591 -0.128306 -1.00236 1.03612 -0.106817 -0.372654 
0.951906 -0.113057 0.007819 1.65397 -0.127456 0.014767 0.469728 -0.132663 -1.70241 
1.37295 -0.123877 -1.17808 0.949436 -0.128601 -1.54974 1.80587 -0.122132 0.012591 
1.71762 -0.125503 -0.630862 0.50867 -0.023263 -1.92162 1.02454 -0.0271 -1.7404 
1.49213 -0.039359 -1.30728 1.88999 -0.034166 -0.698604 1.97635 -0.043208 0.023211 
1.0205 -0.107279 0.394994 0.704981 -0.111725 0.644647 1.26405 -0.128574 1.02968 
0.514447 -0.106781 1.00059 0.268077 -0.11554 1.24805 0.585299 -0.133072 1.41902 
1.30274 -0.123547 1.28371 1.70748 -0.124794 0.675351 0.36266 -0.135563 1.68349 
0.824992 -0.132373 1.60719 1.87423 -0.034119 0.744011 1.46525 -0.039302 1.33842 
0.987948 -0.027558 1.7673 0.415238 -0.024639 1.96059 0.501259 0.02298 -1.92737 
1.48069 0.038839 -1.32409 1.01437 0.026899 -1.74973 1.97782 0.04216 -0.001696 
1.88414 0.03348 -0.721118 0.388391 0.13393 -1.72889 0.546173 0.126589 -1.43207 
0.891988 0.131241 -1.54467 1.32078 0.124618 -1.25435 1.26257 0.129009 -0.998011 
1.71138 0.126101 -0.653167 1.80316 0.12312 0.007875 1.64241 0.127711 0.00828 
0.281911 0.112892 -1.05478 0.714806 0.110561 -0.608612 0.56421 0.10492 -0.932759 
0.935356 0.112469 0.002669 1.01313 0.10685 -0.371329 1.48448 0.03822 1.31809 
1.88493 0.033098 0.716889 0.504462 0.02189 1.92393 1.01749 0.026001 1.74455 
1.70594 0.12541 0.674788 1.30477 0.12331 1.2787 1.25842 0.128481 1.02169 
0.889266 0.12999 1.56129 0.401187 0.131682 1.75065 0.542517 0.12945 1.46953 
0.713215 0.109798 0.623426 1.01707 0.106708 0.379583 0.237167 0.111179 1.0892 
0.561954 0.106331 0.959243 0.090257 -0.08851 -0.691949 0.189761 -0.06868 -0.594824 
0.277675 -0.08726 -0.542178 0.330274 -0.06652 -0.431014 0.353442 -0.06945 -0.293771 
0.51512 -0.07334 -0.290914 0.544705 -0.08606 -0.207485 0.531897 -0.0655 -0.097929 
0.521751 -0.08522 0.001515 0.251977 -0.126884 -1.80767 0.870374 -0.115342 -1.64388 
0.534815 -0.117386 -1.81474 1.37727 -0.111421 -1.24811 1.15464 -0.11144 -1.48468 
1.72925 -0.110715 -0.669537 1.59867 -0.109796 -0.989662 1.85162 -0.109973 0.008029 
1.84486 -0.109009 -0.341307 0.247664 -0.034098 -1.9772 0.525845 -0.044161 -1.93387 
0.818157 -0.055859 -1.80578 1.1829 -0.054721 -1.59061 1.4351 -0.059683 -1.34016 
1.66915 -0.056779 -1.04761 1.82165 -0.059967 -0.715778 1.93266 -0.058051 -0.357615 
1.95344 -0.061919 0.012507 0.527 -0.06521 0.101116 0.521227 -0.08551 0.209284 
0.450827 -0.06459 0.294535 0.380543 -0.08481 0.363007 0.321617 -0.06595 0.44428 
0.243379 -0.08549 0.514552 0.130548 -0.06575 0.515436 0.185986 -0.096871 0.905944 
1.72022 -0.11017 0.694058 1.8412 -0.108743 0.361816 1.35568 -0.109914 1.28299 
1.57754 -0.109224 1.02499 0.948179 -0.117207 1.6023 1.1756 -0.107963 1.48215 
0.352684 -0.128819 1.79872 0.543266 -0.115805 1.81956 1.92747 -0.058088 0.385007 
1.8121 -0.059903 0.740473 1.65369 -0.056639 1.07221 1.41728 -0.059752 1.35919 
1.16199 -0.055068 1.60647 0.79468 -0.057075 1.81438 0.5047 -0.045669 1.93695 
0.282789 -0.03938 1.97329 0.251656 0.034099 -1.9812 0.811994 0.056061 -1.81251 
0.52832 0.04376 -1.93602 1.43683 0.059502 -1.34249 1.17841 0.054679 -1.59802 
1.81904 0.05936 -0.729766 1.66808 0.056172 -1.05396 1.95547 0.061149 -0.014194 
1.93104 0.057218 -0.378928 0.245039 0.121529 -1.84284 0.609221 0.11805 -1.78053 
0.985417 0.118438 -1.56752 1.19345 0.108749 -1.46589 1.37169 0.110821 -1.26349 
1.58734 0.10985 -1.01147 1.72516 0.11108 -0.680762 1.84414 0.109428 -0.350452 
1.85104 0.110609 0.00511 0.120876 0.092628 -0.883009 0.237171 0.071781 -0.438464 
0.16329 0.072819 -0.599388 0.347769 0.067219 -0.291244 0.364786 0.072861 -0.436449 
0.525804 0.084462 -0.204866 0.502032 0.072971 -0.285693 0.507575 0.083572 0.000631 
0.519934 0.064621 -0.097626 1.82377 0.05904 0.714663 1.93419 0.057051 0.359756 
1.4376 0.058698 1.33946 1.66988 0.055651 1.04842 0.819999 0.05489 1.80581 
1.18353 0.05357 1.59117 0.252561 0.032391 1.97743 0.530434 0.042259 1.93246 
1.84271 0.109129 0.358211 1.71954 0.110442 0.694068 1.57468 0.10902 1.02946 
1.34879 0.109261 1.29128 1.17227 0.1068 1.48591 0.973704 0.116569 1.58016 
0.612869 0.11656 1.77585 0.320846 0.120359 1.82305 0.529618 0.084858 0.206913 
0.521621 0.06512 0.098554 0.343615 0.068074 0.288114 0.505151 0.072639 0.288517 
0.269061 0.085571 0.52581 0.323475 0.065499 0.422243 0.088325 0.08741 0.676483 
0.185547 0.06768 0.580128 0.255072 -0.103552 -1.9069 0.220589 -0.089597 -1.93588 
0.521382 -0.093995 -1.86957 0.862163 -0.10167 -1.72841 0.519819 -0.080111 -1.88469 
0.370872 -0.082998 -1.91856 0.760485 -0.088785 -1.78425 0.658447 -0.083104 -1.83531 
1.12924 -0.095104 -1.56605 1.40542 -0.098013 -1.322 1.09703 -0.084172 -1.60204 
0.947146 -0.087861 -1.69328 1.389 -0.086659 -1.34362 1.2689 -0.085073 -1.46956 
1.61241 -0.094042 -1.04817 1.78673 -0.097152 -0.715462 1.60158 -0.084135 -1.08285 
1.49453 -0.086689 -1.22638 1.78178 -0.086592 -0.73059 1.71382 -0.085021 -0.89503 
1.88199 -0.093853 -0.373538 1.92216 -0.097163 -0.000131 1.88551 -0.084317 -0.403517 
1.83748 -0.086664 -0.58142 1.92313 -0.086768 -0.008367 1.92051 -0.085191 -0.187509 
0.178115 -0.051297 -1.98241 0.302124 -0.062892 -1.95747 0.542195 -0.062671 -1.89938 
0.670626 -0.066747 -1.84801 0.790662 -0.068649 -1.79569 0.989297 -0.068161 -1.69644 
1.14942 -0.066913 -1.58549 1.29016 -0.068567 -1.47237 1.41415 -0.06884 -1.34377 
1.53973 -0.069455 -1.20107 1.64473 -0.068157 -1.04523 1.73559 -0.069436 -0.888024 
1.80526 -0.069371 -0.720646 1.8707 -0.070105 -0.540001 1.9109 -0.068946 -0.355265 
1.93715 -0.070316 -0.173789 1.94057 -0.070318 0.008608 1.88468 -0.09369 0.358345 
1.78469 -0.096758 0.720139 1.89809 -0.08425 0.336322 1.91959 -0.086765 0.15082 
1.78662 -0.086354 0.717334 1.8507 -0.084851 0.549567 1.61671 -0.093575 1.04001 
1.40235 -0.096871 1.32468 1.63562 -0.083877 1.02832 1.72452 -0.086343 0.863255 
1.3958 -0.086282 1.33662 1.51561 -0.08456 1.20542 1.13812 -0.09428 1.56058 
0.870348 -0.101723 1.72144 1.11647 -0.082878 1.59099 1.28397 -0.086263 1.45113 
0.749885 -0.089356 1.78671 0.9483 -0.087614 1.69248 0.501552 -0.094348 1.87576 
0.246787 -0.103668 1.9079 0.490285 -0.080728 1.89207 0.638559 -0.083902 1.84084 
0.173023 -0.091331 1.93799 0.289596 -0.082079 1.93761 1.93466 -0.070588 0.201184 
1.90455 -0.068908 0.387797 1.86241 -0.069713 0.56708 1.7981 -0.069257 0.738091 
1.72194 -0.069567 0.914385 1.62524 -0.067993 1.07515 1.52015 -0.069068 1.22519 
1.3991 -0.068874 1.35896 1.26733 -0.06869 1.49152 1.12544 -0.066505 1.60368 
0.967902 -0.068133 1.70747 0.768391 -0.069844 1.80411 0.645834 -0.06817 1.85599 
0.5212 -0.063445 1.90581 0.300523 -0.061406 1.96125 0.219194 -0.049369 1.98272 
0.215895 0.0496 -1.98299 0.533347 0.062441 -1.90611 0.304357 0.061051 -1.96308 
0.782916 0.068909 -1.80272 0.663311 0.066888 -1.85446 1.14359 0.066879 -1.5939 
0.986015 0.068269 -1.70202 1.43634 0.070601 -1.3242 1.28962 0.06901 -1.4768 
1.64675 0.06733 -1.04771 1.56196 0.067718 -1.17538 1.80363 0.068909 -0.732203 
1.73509 0.06884 -0.895184 1.90924 0.06798 -0.379124 1.87005 0.06946 -0.552067 
1.94309 0.070968 -0.040268 1.93476 0.068189 -0.222233 0.104505 0.090889 -1.94713 
0.258881 0.104142 -1.91396 0.27958 0.08547 -1.93883 0.509026 0.080731 -1.89066 
0.570887 0.095251 -1.85532 0.664263 0.083321 -1.83572 0.778166 0.08926 -1.77857 
0.902194 0.10235 -1.70202 0.953718 0.087999 -1.69156 1.09726 0.08441 -1.60428 
1.14468 0.09491 -1.55755 1.26698 0.085079 -1.47393 1.38577 0.086778 -1.34985 
1.40632 0.097559 -1.32261 1.48737 0.086448 -1.2393 1.5973 0.083651 -1.09505 
1.6089 0.093899 -1.05714 1.71387 0.084501 -0.901534 1.78324 0.08623 -0.73423 
1.78471 0.09717 -0.725875 1.83827 0.086361 -0.587892 1.88646 0.084039 -0.410033 
1.88252 0.09392 -0.380493 1.92338 0.08472 -0.1851 1.92522 0.086649 -0.001752 
1.92364 0.097311 -0.004543 1.91203 0.06781 0.362672 1.93867 0.070181 0.184987 
1.81737 0.069829 0.694375 1.87823 0.067459 0.518358 1.6475 0.06675 1.04402 
1.73604 0.06876 0.89002 1.43567 0.06963 1.32265 1.56259 0.0669 1.17207 
1.14577 0.06493 1.59162 1.28142 0.067871 1.48164 0.811883 0.069259 1.78714 
1.01029 0.0648 1.68527 0.534918 0.060829 1.90411 0.666522 0.066191 1.85151 
0.21673 0.047359 1.98056 0.308691 0.058642 1.96148 1.92111 0.08667 0.153267 
1.90033 0.08395 0.33333 1.88651 0.093729 0.355376 1.8516 0.084181 0.554831 
1.78263 0.085609 0.733489 1.78456 0.09643 0.726341 1.70863 0.08411 0.906571 
1.59517 0.08263 1.09597 1.60151 0.092951 1.06641 1.48004 0.085279 1.24628 
1.37725 0.086149 1.35671 1.39241 0.096312 1.33605 1.27232 0.085482 1.46344 
1.11068 0.08115 1.59861 1.13415 0.093019 1.56588 0.9351 0.085889 1.70241 
0.743902 0.088299 1.79197 0.882473 0.10063 1.71289 0.631149 0.083062 1.84524 
0.491784 0.078921 1.89391 0.516251 0.094051 1.87452 0.293438 0.080111 1.93993 
0.181289 0.090648 1.93764 0.275607 0.107861 1.89561 0.214694 -0.076732 -1.95335 
0.416698 -0.072884 -1.92206 0.562308 -0.071494 -1.88151 0.672652 -0.07469 -1.84123 
0.833661 -0.078624 -1.76843 1.00448 -0.078898 -1.67057 1.15829 -0.075545 -1.57413 
1.27978 -0.076707 -1.46736 1.40935 -0.077705 -1.34725 1.54061 -0.078881 -1.18142 
1.64988 -0.076126 -1.03105 1.72464 -0.077158 -0.886242 1.80227 -0.078042 -0.725646 
1.86451 -0.079209 -0.519988 1.91099 -0.076623 -0.338315 1.92707 -0.077656 -0.174698 
1.93994 -0.078484 0.003786 1.9218 -0.079388 0.219199 1.89791 -0.076502 0.405457 
1.8523 -0.077241 0.564039 1.79831 -0.077847 0.734458 1.70152 -0.078773 0.927961 
1.6113 -0.07586 1.09065 1.51096 -0.076781 1.22033 1.39902 -0.077451 1.35762 
1.23805 -0.077867 1.50306 1.12025 -0.073646 1.6023 0.994374 -0.078277 1.67703 
0.818157 -0.079166 1.77434 0.648198 -0.075876 1.8485 0.53664 -0.072356 1.88836 
0.388514 -0.072076 1.92959 0.196396 -0.071823 1.96223 0.191679 0.072791 -1.96483 
0.39282 0.07242 -1.93126 0.55064 0.071541 -1.8883 0.66711 0.074919 -1.8466 
0.834984 0.07889 -1.77058 1.00446 0.079099 -1.67345 1.15616 0.075699 -1.579 
1.27371 0.077179 -1.47576 1.38548 0.079029 -1.37111 1.52393 0.077231 -1.21266 
1.65011 0.075239 -1.03691 1.72473 0.07654 -0.892725 1.80236 0.077561 -0.733069 
1.86513 0.07875 -0.528985 1.91261 0.075649 -0.350337 1.93399 0.07576 -0.15609 
1.9394 0.079248 0.02398 1.92389 0.079239 0.217589 1.90324 0.0755 0.394951 
1.85095 0.075048 0.584389 1.78855 0.077829 0.756229 1.71923 0.076441 0.899367 
1.64851 0.0746 1.03654 1.52241 0.076219 1.2128 1.3782 0.078411 1.37676 
1.23511 0.07711 1.50756 1.12848 0.071769 1.60003 0.966654 0.075301 1.69984 
0.790553 0.079569 1.78594 0.654547 0.07471 1.84841 0.54587 0.070308 1.88835 
0.39496 0.069731 1.93083 0.200037 0.069481 1.96398 1.87574 0.008505 -0.71798 
1.85961 0.008948 0.760392 1.87305 -0.00943 -0.73119 1.8681 -0.01074 0.747826 

thickness 1 687 float
0.907029 0.907029 0.907029 0.907029 0.907029 0.907029 0.907029 0.907029 0.907029 
0.907029 0.907029 0.907029 0.907029 0.907029 0.907029 0.907029 0.907029 0.907029 
0.907029 0.907029 0.907029 0.907029 0.907029 0.907029 0.907029 0.907029 0.907029 
0.907029 0.907029 0.907029 0.907029 0.907029 0.907029 0.907029 0.907029 0.907029 
0.907029 0.907029 0.907029 0.907029 0.907029 0.907029 0.907029 0.907029 0.907029 
0.907029 0.907029 0.907029 0.907029 0.907029 0.907029 0.907029 0.907029 0.907029 
0.907029 0.907029 0.907029 0.907029 0.907029 0.907029 0.907029 0.907029 0.907029 
0.907029 0.907029 0.907029 0.907029 0.907029 0.907029 0.907029 0.907029 0.907029 
0.907029 0.907029 0.907029 0.907029 0.907029 0.907029 0.907029 0.907029 0.907029 
0.907029 0.907029 0.907029 0.907029 0.907029 0.907029 0.907029 0.907029 0.907029 
0.907029 0.907029 0.907029 0.907029 0.907029 0.907029 0.907029 0.907029 0.907029 
0.907029 0.907029 0.907029 0.907029 0.907029 0.907029 0.907029 0.907029 0.907029 
0.907029 0.907029 0.907029 0.907029 0.907029 0.907029 0.907029 0.907029 0.907029 
0.907029 0.907029 0.907029 0.907029 0.907029 0.907029 0.907029 0.907029 0.907029 
0.907029 0.907029 0.907029 0.907029 0.907029 0.907029 0.907029 0.907029 0.907029 
0.907029 0.907029 0.907029 0.907029 0.907029 0.907029 0.907029 0.907029 0.907029 
0.907029 0.907029 0.907029 0.907029 0.907029 0.907029 0.907029 0.907029 0.907029 
0.907029 0.907029 0.907029 0.907029 0.907029 0.907029 0.907029 0.907029 0.907029 
0.907029 0.907029 0.907029 0.907029 0.907029 0.907029 0.907029 0.907029 0.907029 
0.907029 0.907029 0.907029 0.907029 0.907029 0.847707 0.845809 0.802173 0.843662 
0.800915 0.845666 0.819457 0.820587 0.802928 0.844799 0.807792 0.84459 0.804624 
0.844009 0.807207 0.844895 0.801916 0.842275 0.814482 0.846917 0.771485 0.696497 
0.646993 0.617331 0.598919 0.591076 0.594292 0.594667 0.596549 0.594581 0.594022 
0.591353 0.598635 0.62849 0.666511 0.723048 0.793224 0.851277 0.803319 0.843134 
0.801592 0.845196 0.819507 0.820902 0.803454 0.845151 0.808488 0.84482 0.803817 
0.820095 0.819997 0.81736 0.816255 0.844802 0.815787 0.770373 0.687429 0.633503 
0.613745 0.598259 0.591291 0.594644 0.595098 0.596445 0.594908 0.594657 0.591773 
0.597839 0.623559 0.663788 0.72038 0.79191 0.59201 0.592354 0.594688 0.591524 
0.594083 0.597345 0.591642 0.594064 0.597047 0.591677 0.593842 0.596882 0.607854 
0.600907 0.606365 0.601096 0.60482 0.599841 0.609536 0.601399 0.601682 0.597567 
0.593206 0.596614 0.599166 0.610272 0.596021 0.592545 0.596981 0.600838 0.598864 
0.596057 0.592705 0.597293 0.596796 0.592663 0.595914 0.701731 0.645928 0.709412 
0.727262 0.653103 0.7152 0.731037 0.655376 0.617762 0.616648 0.619057 0.617883 
0.620675 0.592263 0.593651 0.596921 0.597773 0.599094 0.716967 0.728981 0.654738 
0.710291 0.681359 0.647097 0.615559 0.620982 0.623503 0.620233 0.597482 0.596509 
0.593148 0.591408 0.591827 0.596589 0.593187 0.598887 0.597488 0.619632 0.65457 
0.623041 0.616189 0.656197 0.621384 0.618063 0.656785 0.70488 0.728694 0.712244 
0.732355 0.717413 0.596589 0.597403 0.591881 0.593245 0.621189 0.615539 0.654901 
0.621205 0.616732 0.648127 0.728917 0.717013 0.704728 0.711728 0.748056 0.771496 
0.756558 0.77973 0.783858 0.767981 0.760177 0.781884 0.771204 0.612868 0.608469 
0.607786 0.60906 0.608072 0.610851 0.609144 0.610869 0.610067 0.59192 0.592927 
0.595323 0.596478 0.598173 0.598373 0.599277 0.599538 0.600396 0.782594 0.762937 
0.781593 0.77025 0.780293 0.758119 0.776107 0.717971 0.611082 0.61022 0.608256 
0.609187 0.609329 0.606004 0.612433 0.606374 0.599537 0.599228 0.598204 0.598078 
0.59633 0.595348 0.592472 0.591535 0.591501 0.594934 0.592438 0.597923 0.596154 
0.598995 0.598052 0.600162 0.599269 0.60871 0.608539 0.610528 0.606258 0.608443 
0.609247 0.61104 0.610146 0.610886 0.729436 0.77408 0.768264 0.783394 0.767841 
0.76118 0.769165 0.771555 0.782673 0.599108 0.599311 0.59796 0.598136 0.594993 
0.596112 0.591575 0.59246 0.610173 0.611088 0.609178 0.608201 0.605905 0.609971 
0.608044 0.6087 0.76118 0.782728 0.784723 0.769111 0.75826 0.780681 0.750621 
0.772985 0.602341 0.599082 0.600311 0.603142 0.597827 0.597941 0.599963 0.598775 
0.60153 0.603565 0.59983 0.600035 0.600974 0.600196 0.602813 0.604995 0.601255 
0.601251 0.602411 0.601688 0.603802 0.605362 0.602314 0.602511 0.602881 0.602441 
0.59254 0.594599 0.595404 0.596395 0.597078 0.597414 0.597748 0.598374 0.599071 
0.599265 0.599449 0.599922 0.600439 0.600564 0.600551 0.600795 0.601135 0.603919 
0.60518 0.602442 0.602787 0.60259 0.602342 0.603042 0.603288 0.601512 0.602218 
0.600998 0.601066 0.601348 0.602924 0.59967 0.600445 0.60005 0.599953 0.600472 
0.602246 0.59787 0.598875 0.599433 0.597752 0.600889 0.600579 0.600511 0.600462 
0.599981 0.599402 0.59915 0.599057 0.598333 0.597628 0.597331 0.597121 0.596383 
0.595267 0.594031 0.592099 0.592077 0.594941 0.593921 0.59667 0.595952 0.59738 
0.59704 0.598987 0.598103 0.5991 0.598872 0.600172 0.599634 0.600214 0.600267 
0.600892 0.600374 0.598602 0.602063 0.598044 0.597615 0.600576 0.598454 0.599647 
0.603255 0.599768 0.599533 0.601243 0.599945 0.600783 0.6032 0.601062 0.601036 
0.60274 0.601514 0.602218 0.604956 0.602316 0.602096 0.603683 0.602289 0.602705 
0.605241 0.600263 0.600621 0.600388 0.600196 0.599158 0.599764 0.599023 0.598923 
0.597184 0.598051 0.596933 0.596771 0.594872 0.595975 0.592028 0.593704 0.602563 
0.602206 0.603742 0.602175 0.602367 0.605038 0.601622 0.601072 0.602811 0.601077 
0.600812 0.603109 0.600171 0.599274 0.60112 0.599612 0.599545 0.60301 0.598391 
0.597355 0.600188 0.597251 0.599275 0.603741 0.596798 0.596456 0.596736 0.597504 
0.598415 0.598817 0.598669 0.599036 0.599716 0.600277 0.600268 0.600526 0.60111 
0.601487 0.601301 0.601335 0.601682 0.601742 0.601323 0.601125 0.601208 0.600944 