# vtk DataFile Version 3.0
vtk output
ASCII
DATASET UNSTRUCTURED_GRID
POINTS 687 float
5 7 10 5 7 10 5 8 11.25 
5 8.25 11 5 8 10 5 7 11.25 
5 7.5 13 5 8 12.5 5 7 10.3125 
5 7 10.625 5 7 10.9375 5 7.38766 11.25 
5 7.64592 11.25 5 7.80052 11.25 5 7.90878 11.25 
5 8.01755 11.158 5 8.07322 11.0732 5 8.15798 11.0176 
5 8.25 10.1644 5 8.25 10.3763 5 8.25 10.5485 
5 8.25 10.6871 5 8.25 10.8026 5 8.25 10.9045 
5 7.74324 10 5 7.41786 10 5 7 11.6875 
5 7 12.125 5 7 12.5625 5 7.30926 13 
5 7.68405 12.9649 5 7.85355 12.8536 5 7.96489 12.684 
5 8 12.3065 5 8 12.1233 5 8 11.9567 
5 8 11.8086 5 8 11.6771 5 8 11.5591 
5 8 11.4509 5 8 11.3489 5 7.93205 11.0425 
5 7.80734 11.0245 5 7.67859 10.99 5 7.51824 10.9746 
5 7.32515 10.9611 5 8.01086 10.2002 5 8.03769 10.3933 
5 8.06323 10.5667 5 8.09469 10.7162 5 8.13242 10.8231 
5 8.14712 10.922 5 7.39469 10.6822 5 7.65901 10.6508 
5 7.8705 10.6089 5 7.93308 10.788 5 7.93412 10.9257 
5 7.7282 10.8379 5 7.82322 10.9294 5 7.54704 10.8316 
5 8.04809 10.9431 5 8.03786 10.8514 5 7.44218 10.3424 
5 7.75573 10.2431 5 7.82664 10.4299 5 7.64261 10.4744 
5 7.91347 11.1466 5 7.79547 11.136 5 7.66053 11.123 
5 7.52214 11.1159 5 7.44943 11.7066 5 7.68075 11.6735 
5 7.84745 11.667 5 7.40022 12.1904 5 7.64784 12.1371 
5 7.83294 12.1302 5 7.85639 12.4875 5 7.71852 12.5169 
5 7.5621 12.5627 5 7.35291 12.6213 5 7.84497 12.3142 
5 7.69057 12.3325 5 7.55096 12.3619 5 7.62604 12.7508 
5 7.76505 12.6851 5 7.86211 12.6189 5 7.49298 12.7907 
5 7.85524 11.8031 5 7.83896 11.9463 5 7.6677 11.8951 
5 7.73456 11.7906 5 7.8089 11.3764 5 7.85382 11.5144 
5 7.6916 11.5296 5 7.67156 11.3874 5 7.56029 11.5433 
5 7.53983 11.3935 5 7.90972 11.3537 5 7.92118 11.4397 
5 24 8 5 24 9 5 19.75 8 
5 16 9 5 16 11 5 11.25 9 
5 11.25 11 5 8.25 9.923 5 0 13 
5 0 10 5 7 13 0 8.1543 11.019 
0 8.07322 11.0732 0 8.01904 11.1543 0 8 11.25 
2.5 8.25 11 2.5 8.15432 11.019 2.5 8.07324 11.0732 
2.5 8.01903 11.1543 2.5 8 11.25 5 8.15434 11.019 
5 8.01902 11.1543 0 7.96192 12.6914 0 7.85355 12.8536 
0 7.6914 12.9619 2.5 8 12.5 2.5 7.96192 12.6914 
2.5 7.85355 12.8536 2.5 7.6914 12.9619 2.5 7.5 13 
5 7.96192 12.6914 5 7.6914 12.9619 0 24 9 
0 24 8 0 16 9 0 16 11 
0 0 10 0 0 13 0 8.25 11 
0 8 12.5 0 7.5 13 0 26 8 
7 26 8 7 24 8 7 19.75 8 
7 16 9 7 11.25 9 7 8 10 
7 0 10 7 -2 10 0 -2 10 
0 0 -11 0 0 -8 0 -2 -8 
5 -2 -8 7 -2 -8 5 0 -8 
5 0 -11 5 8 -11 5 8 -8 
7 8 -8 5 11.25 -11 5 11.25 -9 
7 11.25 -9 5 16 -11 5 16 -9 
7 16 -9 5 19.75 -11 5 19.75 -10 
7 19.75 -10 0 24 -11 0 24 -10 
5 24 -10 5 24 -11 0 26 -10 
5 26 -10 7 26 -10 0 -12 -4 
0 -12 4 0.59691 -12 -3.95521 1.23343 -12 -3.80508 
1.86684 -12 -3.53764 2.4031 -12 -3.19767 2.82877 -12 -2.82808 
3.32044 -12 -2.2304 3.73551 -12 -1.43038 3.93533 -12 -0.71638 
3.99986 -12 0.03336 3.92368 -12 0.77765 3.70276 -12 1.51312 
3.35693 -12 2.17509 2.89656 -12 2.75861 2.35395 -12 3.23403 
1.75721 -12 3.59335 1.15512 -12 3.82958 0.56093 -12 3.96047 
0 36 4 0 -10.743 4 0 -8.8877 4 
0 -6.64749 4 0 -4.45202 4 0 -0.91936 4 
0 4.14518 4 0 6.58748 4 0 9.66416 4 
0 12.0556 4 0 14.4989 4 0 17.6266 4 
0 20.3196 4 0 24.9607 4 0 29.4472 4 
0 31.7102 4 0 33.6144 4 0 35.0694 4 
0 36 -4 0.59993 36 3.95476 1.23847 36 3.80344 
1.87132 36 3.53528 2.4058 36 3.19564 2.82825 36 2.8286 
3.31559 36 2.2376 3.73171 36 1.44025 3.93289 36 0.72964 
3.99999 36 0.00729 3.93339 36 -0.72693 3.7303 36 -1.44391 
3.33354 36 -2.21076 2.85148 36 -2.80519 2.28639 36 -3.28214 
1.63682 36 -3.64977 1.11455 36 -3.84158 0.56461 36 -3.95995 
0 34.661 -4 0 32.5627 -4 0 29.9725 -4 
0 27.9548 -4 0 24.936 -4 0 20.302 -4 
0 17.5542 -4 0 14.3512 -4 0 11.9689 -4 
0 9.52824 -4 0 6.40852 -4 0 3.7104 -4 
0 -0.45165 -4 0 -4.9424 -4 0 -7.504 -4 
0 -9.50153 -4 0 -11.0253 -4 0 2.06879 -4 
0 1.24817 -4 0 0.49795 -4 0 2.22891 4 
0 0.81573 4 0 -0.2654 4 0 21.9979 -4 
0 23.2408 -4 0 24.3368 -4 0 21.9532 4 
0 23.1639 4 0 24.2218 4 0 -2.85941 -4 
0 -1.4497 -4 0 -2.71248 4 0 -1.53432 4 
0 26.5263 -4 0 25.5061 -4 0 27.2927 4 
0 25.7706 4 2.28036 11.9291 -3.28633 1.91748 7.67834 -3.51045 
1.39183 4.80584 -3.75004 3.10004 4.74612 -2.5278 3.99902 4.81728 0.08855 
3.99929 11.9788 0.07526 3.01126 4.7799 2.63293 1.3206 4.94069 3.77571 
1.85925 7.75999 3.54164 2.26005 12.0455 3.30033 4 19.1687 0.00563 
3.05144 19.2212 -2.58625 1.3639 19.1697 -3.76029 1.9216 16.2623 -3.5082 
1.88377 16.3456 3.52866 1.37297 19.2307 3.75698 3.06558 19.3026 2.56948 
0.86913 -9.0538 -3.90444 1.36253 -6.45576 -3.76079 2.03706 -9.19679 -3.44244 
3.04279 -9.69606 -2.59642 3.11128 -6.58598 -2.51395 3.7595 -9.34266 -1.36607 
3.99985 -9.72826 0.03484 3.99986 -6.60452 0.03337 1.03898 -4.23036 -3.86271 
3.0157 -3.54152 -2.62784 2.05455 -4.03413 -3.43203 3.99994 -3.50264 0.0214 
3.74655 -3.86932 -1.40121 1.00023 2.98374 -3.87292 1.99481 2.63411 -3.46709 
2.98987 2.17564 -2.65719 3.74575 2.45304 -1.40334 3.9997 2.15958 0.04896 
3.72707 -9.3715 1.45222 2.9589 -9.71773 2.69164 3.0344 -6.63176 2.60623 
1.83862 -9.28024 3.55239 0.83367 -8.38579 3.91216 1.43719 -6.66098 3.73289 
2.82548 -3.41986 2.83137 3.71431 -3.8546 1.48454 0.80231 -4.99714 3.91871 
1.77296 -4.35265 3.58561 3.70922 2.45004 1.49723 2.93365 2.16411 2.71913 
1.91758 2.60035 3.5104 0.80755 2.87316 3.91763 0.98341 21.0045 -3.87723 
2.96254 21.8143 -2.68763 1.97163 21.3626 -3.48032 4 21.8263 -0.0017 
3.72906 21.5439 -1.4471 0.84747 28.4195 -3.90919 1.34399 31.0003 -3.76745 
1.95439 28.5374 -3.49004 2.87262 27.5375 -2.78353 3.07745 30.8031 -2.55525 
3.72995 27.9379 -1.4448 3.99996 27.5711 0.01726 3.99996 30.7106 0.01826 
1.04168 33.1935 -3.86198 3.05671 33.7806 -2.58002 2.08878 33.3701 -3.4113 
3.99999 33.7855 0.01071 3.75229 33.4182 -1.38575 2.97043 21.8482 2.67891 
3.73117 21.5642 1.44167 0.98998 21.028 3.87556 1.97903 21.3942 3.47613 
3.71189 27.9005 1.4906 2.82811 27.4453 2.82874 3.04412 30.7018 2.59487 
1.93597 28.3735 3.50029 0.86823 28.146 3.90463 1.3057 30.7039 3.78089 
3.02368 33.7595 2.61866 3.74268 33.397 1.41152 0.86284 33.1639 3.90583 
2.02665 33.2848 3.44858 0.53032 -10.5458 -3.96469 1.24149 -10.7951 -3.80246 
1.85972 -10.739 -3.54139 2.44302 -10.9691 -3.16728 3.06586 -11.1071 -2.56914 
3.48459 -10.8306 -1.96409 3.7465 -10.7956 -1.40133 3.93436 -10.9762 -0.72168 
3.99993 -10.9299 0.02358 0.54517 -3.49606 -3.96268 1.86409 -2.61933 -3.53909 
1.12497 -2.64827 -3.83855 2.9571 -2.35459 -2.69361 2.44919 -2.36751 -3.16251 
3.72692 -2.41852 -1.45261 3.39583 -2.27834 -2.11384 3.99998 -2.31918 0.01383 
3.93224 -2.2631 -0.73315 0.48601 2.25066 -3.97036 1.03264 1.61027 -3.86441 
1.64176 1.01027 -3.64755 2.37715 1.13073 -3.21701 2.91683 0.91806 -2.73717 
3.38248 1.09831 -2.13514 3.72047 0.97203 -1.46904 3.93264 1.103 -0.73102 
3.99992 0.92061 0.02526 3.92483 -10.9867 0.77183 3.71071 -10.8422 1.49354 
3.3623 -10.9829 2.16677 2.9046 -10.9215 2.75014 2.34975 -10.9585 3.23708 
1.73632 -10.8351 3.6035 1.08728 -11.0164 3.84939 0.76552 -9.85185 3.92606 
3.70832 -2.40724 1.49945 3.9251 -2.25836 0.77044 2.9009 -2.24119 2.75405 
3.3515 -2.23326 2.18344 2.02728 -2.75573 3.44821 2.48468 -2.05245 3.1347 
0.75188 -3.60736 3.9287 1.14269 -2.47261 3.83331 3.92189 1.10123 0.78663 
3.70058 0.96959 1.51845 3.351 1.09403 2.18422 2.88114 0.91095 2.77471 
2.33539 1.11346 3.24745 1.59742 0.95017 3.66719 0.99331 1.51146 3.87471 
0.55744 1.91642 3.96097 0.49282 21.7568 -3.96953 1.62708 22.9996 -3.65412 
1.03614 22.3695 -3.86347 2.91706 23.0854 -2.73692 2.36484 22.8705 -3.22607 
3.71028 23.0214 -1.4946 3.37648 22.8891 -2.14462 3.9999 23.0778 -0.02841 
3.92467 22.8842 -0.77261 0.51979 26.9399 -3.96608 1.2839 26.7399 -3.78835 
2.11377 26.9015 -3.39588 2.52051 26.1316 -3.10597 2.93463 26.3152 -2.71807 
3.36843 26.2864 -2.15724 3.71832 26.4622 -1.47449 3.92922 26.2994 -0.74917 
3.99998 26.3685 0.01184 0.55062 33.9394 -3.96192 1.97271 35.0239 -3.47972 
1.14169 34.811 -3.83361 3.08146 35.1197 -2.55042 2.58816 34.8824 -3.04982 
3.73846 34.839 -1.42265 3.48539 34.8596 -1.96266 3.99999 34.9623 0.00668 
3.93189 35.0007 -0.73504 3.72154 23.0373 1.46633 3.93176 22.8918 0.73573 
2.91935 23.0975 2.73448 3.38141 22.9046 2.13684 1.64466 23.007 3.64624 
2.37652 22.8746 3.21747 0.49487 21.7358 3.96927 1.0407 22.3613 3.86225 
3.92575 26.2931 0.76713 3.70601 26.448 1.50515 3.34197 26.263 2.198 
2.88063 26.2536 2.77524 2.47122 26.0537 3.14532 2.08148 26.8047 3.41576 
1.2917 26.6842 3.7857 0.68296 26.9319 3.94126 3.73438 34.8292 1.43333 
3.92972 34.9963 0.74652 3.0571 35.1329 2.57956 3.47547 34.8531 1.98018 
1.86379 34.7857 3.53925 2.44652 34.9947 3.16457 0.53235 34.5863 3.96442 
1.24874 34.8315 3.80009 0.52811 -1.66823 -3.96498 0.45204 -0.84639 -3.97438 
1.07292 -1.10687 -3.85342 1.78369 -1.62004 -3.58029 1.06326 -0.32748 -3.8561 
0.75907 -0.48267 -3.92732 1.56772 -0.81885 -3.67998 1.35017 -0.49395 -3.76524 
2.33715 -1.17613 -3.24619 2.91025 -1.38515 -2.74416 2.25846 -0.53158 -3.30142 
1.95131 -0.75918 -3.49176 2.87334 -0.66995 -2.78279 2.61278 -0.56887 -3.02876 
3.35142 -1.10734 -2.18357 3.71158 -1.36738 -1.49136 3.31205 -0.49745 -2.24284 
3.09024 -0.6604 -2.53977 3.69991 -0.6572 -1.52008 3.54448 -0.54599 -1.85383 
3.92279 -1.09408 -0.78213 4 -1.34705 -0.00312 3.9109 -0.48582 -0.83958 
3.81268 -0.64663 -1.20974 3.99995 -0.64705 -0.01926 3.98089 -0.53487 -0.39052 
0.35215 1.2147 -3.98447 0.60895 0.58968 -3.95338 1.09375 0.62285 -3.84756 
1.36124 0.41025 -3.76125 1.6086 0.31642 -3.6623 2.01162 0.35229 -3.45737 
2.34331 0.45551 -3.24174 2.63225 0.38019 -3.01185 2.89599 0.38569 -2.75921 
3.15088 0.35872 -2.46413 3.37306 0.45257 -2.15 3.5589 0.39074 -1.82599 
3.71344 0.41132 -1.48674 3.84224 0.37865 -1.1123 3.93218 0.46215 -0.73344 
3.98386 0.3871 -0.35896 3.99996 0.39629 0.01684 3.92995 -1.09117 0.7453 
3.70953 -1.35634 1.49646 3.93889 -0.48438 0.69651 3.98788 -0.64025 0.3112 
3.71222 -0.65148 1.48977 3.8347 -0.53622 1.13801 3.36409 -1.08533 2.16399 
2.90685 -1.3059 2.74777 3.38661 -0.48683 2.12859 3.57735 -0.64249 1.78958 
2.88925 -0.63887 2.76626 3.13069 -0.53105 2.48974 2.35752 -1.09709 3.23142 
1.80695 -1.5696 3.5686 2.29815 -0.43655 3.27391 2.65143 -0.62659 2.99499 
[...]
POINT_DATA 687
FIELD FieldData 2
displacement 3 687 float
0 0 0 0 0 0 0 0 0 
0 0 0 0 0 0 0 0 0 
0 0 0 0 0 0 0 0 0 
0 0 0 0 0 0 0 0 0 
0 0 0 0 0 0 0 0 0 
0 0 0 0 0 0 0 0 0 
0 0 0 0 0 0 0 0 0 
0 0 0 0 0 0 0 0 0 
0 0 0 0 0 0 0 0 0 
0 0 0 0 0 0 0 0 0 
0 0 0 0 0 0 0 0 0 
0 0 0 0 0 0 0 0 0 
0 0 0 0 0 0 0 0 0 
0 0 0 0 0 0 0 0 0 
0 0 0 0 0 0 0 0 0 
0 0 0 0 0 0 0 0 0 
0 0 0 0 0 0 0 0 0 
0 0 0 0 0 0 0 0 0 
0 0 0 0 0 0 0 0 0 
0 0 0 0 0 0 0 0 0 
0 0 0 0 0 0 0 0 0 
0 0 0 0 0 0 0 0 0 
0 0 0 0 0 0 0 0 0 
0 0 0 0 0 0 0 0 0 
0 0 0 0 0 0 0 0 0 
0 0 0 0 0 0 0 0 0 
0 0 0 0 0 0 0 0 0 
0 0 0 0 0 0 0 0 0 
0 0 0 0 0 0 0 0 0 
0 0 0 0 0 0 0 0 0 
0 0 0 0 0 0 0 0 0 
0 0 0 0 0 0 0 0 0 
0 0 0 0 0 0 0 0 0 
0 0 0 0 0 0 0 0 0 
0 0 0 0 0 0 0 0 0 
0 0 0 0 0 0 0 0 0 
0 0 0 0 0 0 0 0 0 
0 0 0 0 0 0 0 0 0 
0 0 0 0 0 0 0 0 0 
0 0 0 0 0 0 0 0 0 
0 0 0 0 0 0 0 0 0 
0 0 0 0 0 0 0 0 0 
0 0 0 0 0 0 0 0 0 
0 0 0 0 0 0 0 0 0 
0 0 0 0 0 0 0 0 0 
0 0 0 0 0 0 0 0 0 
0 0 0 0 0 0 0 0 0 
0 0 0 0 0 0 0 0 0 
0 0 0 0 0 0 0 0 0 
0 0 0 0 0 0 0 0 0 
0 0 0 0 0 0 0 0 0 
0 0 0 0 0 0 0 0 0 
0 0 0 0 0 0 0 0 0 
0 0 0 0 0 0 0 0 0 
0 0 0 0 0 0 0 0 0 
0 0 0 0 0 0 0 0 0 
0 0 0 0 0 0 0 0 0 
0 0 0 0 0 0 0 0 0 
0 0 0 0 0 0 0 0 0 
0 0 0 0 0 0 0 0 0 
0 0 0 0 0 0 0 0 0 
0 0 0 0 0 0 0 0 0 
0 0 0 0 0 0 0 0 0 
0 0 0 0 0 0 0 0 0 
0 0 0 0 0 0 0 0 0 
0 0 0 0 -0.00749 0.549924 0 0.007165 0.943663 
0 0.027948 1.20103 0 0.02828 1.30706 0 0.046736 1.37094 
0 0.060394 1.34435 0 0.047679 1.33259 0 0.034065 1.40153 
0 -0.00122 1.20571 0 -0.03674 1.40358 0 -0.05043 1.33859 
0 -0.06296 1.35976 0 -0.047331 1.37083 0 -0.02627 1.28421 
0 -0.024999 1.10334 0 0.002403 0.811597 0 0.007962 0.41126 
0 0 0 0 0 0 0 0 0 
0 0 0 0 0 0 0 0 0 
0 0 0 0 0 0 0 0 0 
0 0 0 0 0 0 0 0 0 
0 0 0 0 0 0 0 0 0 
0 0 0 0 0 0 0 0 0 
0 0.009731 -0.568569 0 -0.021881 -1.02108 0 -0.02384 -1.24789 
0 -0.03013 -1.31896 0 -0.046629 -1.37712 0 -0.0616 -1.36176 
0 -0.048158 -1.33683 0 -0.03506 -1.40468 0 0.00032 -1.20696 
0 0.036828 -1.40372 0 0.049675 -1.33925 0 0.062006 -1.36048 
0 0.049861 -1.37654 0 0.02653 -1.30795 0 0.025395 -1.12219 
0 -0.001514 -0.8348 0 -0.00786 -0.427493 0 0.060644 -1.36694 
0 0.058578 -1.37314 0 0.055591 -1.38462 0 0.061874 1.37206 
0 0.057425 1.38203 0 0.050855 1.38049 0 -0.0603 -1.36897 
0 -0.05666 -1.38316 0 -0.050259 -1.38335 0 -0.06159 1.36586 
0 -0.05804 1.3816 0 -0.05184 1.38169 0 0.036667 -1.35964 
0 0.044006 -1.37215 0 0.035445 1.37577 0 0.042941 1.37038 
0 -0.03762 -1.36083 0 -0.04319 -1.37544 0 -0.033732 1.34494 
0 -0.042369 1.37106 0.847777 0.00121 -1.09672 0.648637 0.042896 -1.16111 
0.490757 0.056502 -1.26254 1.11053 0.055517 -0.866263 1.43117 0.050867 0.026063 
1.33437 0.00026 0.013863 1.08374 0.055743 0.897594 0.467334 0.055863 1.26227 
0.630815 0.041936 1.16533 0.838094 -0.00119 1.09853 1.43204 -0.05106 0.000843 
1.09675 -0.05526 -0.885252 0.482759 -0.055679 -1.26699 0.648289 -0.04158 -1.15955 
0.639536 -0.043711 1.16579 0.484986 -0.057569 1.26426 1.10016 -0.05694 0.879061 
0.200167 0.007559 -0.905522 0.445563 0.026582 -1.15188 0.473742 0.009809 -0.798347 
0.601386 -0.005394 -0.517234 1.011 0.028576 -0.779238 0.85007 0.006565 -0.305801 
0.781745 -0.009072 0.006455 1.2913 0.028706 0.011036 0.34658 0.030259 -1.25902 
1.00185 0.036933 -0.861826 0.702356 0.033868 -1.14949 1.31726 0.038328 0.009241 
1.27066 0.036974 -0.46748 0.347197 0.06141 -1.31093 0.704583 0.061886 -1.19783 
1.0227 0.056816 -0.897948 1.30425 0.057359 -0.483078 1.35469 0.053458 0.015998 
0.838027 0.005652 0.324289 0.578919 -0.007144 0.529437 0.987674 0.028451 0.800089 
0.423052 0.009005 0.820046 0.215417 0.017025 0.999533 0.453499 0.022958 1.09297 
0.94918 0.036868 0.938707 1.26349 0.037783 0.500549 0.272779 0.027579 1.26457 
0.614457 0.030723 1.19977 1.29314 0.057555 0.514519 1.00383 0.0573 0.919288 
0.679435 0.062262 1.21698 0.284337 0.061862 1.34146 0.34195 -0.060989 -1.31381 
1.01415 -0.05674 -0.90859 0.697094 -0.061581 -1.20315 1.35478 -0.053721 -0.000894 
1.29946 -0.057461 -0.498101 0.288338 -0.02944 -1.28471 0.428097 -0.026161 -1.11642 
0.666269 -0.0317 -1.15444 0.964165 -0.036331 -0.91814 0.988454 -0.026461 -0.778044 
1.26765 -0.036569 -0.484365 1.31613 -0.037519 0.005883 1.28419 -0.02754 0.006451 
0.22877 -0.00462 -0.856446 0.587255 0.00756 -0.500341 0.462771 -0.008419 -0.764502 
0.768562 0.01006 0.002132 0.831784 -0.004971 -0.304992 1.01681 -0.057741 0.905016 
1.29986 -0.058102 0.495697 0.344044 -0.062349 1.31154 0.699128 -0.062849 1.19981 
1.26288 -0.037031 0.500561 0.950884 -0.03696 0.935101 0.983196 -0.02768 0.794947 
0.662213 -0.032501 1.16451 0.296329 -0.030649 1.29647 0.422281 -0.02627 1.1384 
0.58627 0.006229 0.512392 0.834943 -0.00557 0.311651 0.193556 -0.006809 0.886027 
0.460365 -0.008877 0.784976 0.075532 -0.01209 -0.578367 0.159742 -0.00287 -0.500409 
0.231992 -0.01838 -0.453271 0.278128 -0.00771 -0.362719 0.296818 -0.01666 -0.246982 
0.431547 -0.00833 -0.244275 0.454826 -0.01946 -0.173568 0.447444 -0.00687 -0.082388 
0.436135 -0.02387 0.001211 0.184036 0.033098 -1.32439 0.625372 0.039252 -1.18649 
0.385532 0.037512 -1.31563 0.985762 0.041381 -0.896694 0.828527 0.041387 -1.06979 
1.24064 0.042448 -0.481853 1.14744 0.0425 -0.71313 1.32545 0.04252 0.005808 
1.32441 0.043171 -0.245711 0.169996 0.061016 -1.35834 0.363296 0.060015 -1.33845 
0.565824 0.056808 -1.25366 0.817994 0.056039 -1.10404 0.992587 0.054208 -0.930405 
1.15579 0.054393 -0.72774 1.26022 0.053014 -0.496932 1.3385 0.053108 -0.248583 
1.35202 0.052049 0.008748 0.443422 -0.00703 0.08499 0.43537 -0.02088 0.17499 
0.379167 -0.00615 0.248063 0.31795 -0.02298 0.303704 0.270455 -0.00662 0.373816 
0.20331 -0.02053 0.430734 0.109858 -0.00903 0.435654 0.154147 0.001455 0.746632 
1.23373 0.04297 0.499544 1.3217 0.043473 0.260528 0.968427 0.041954 0.920974 
1.13113 0.042867 0.738271 0.682856 0.038383 1.15954 0.838898 0.042174 1.06355 
0.258945 0.031534 1.32183 0.389679 0.037618 1.31471 1.33471 0.053181 0.267772 
1.25326 0.053236 0.514153 1.14457 0.054776 0.744837 0.979767 0.054475 0.9435 
0.803181 0.056248 1.11498 0.549255 0.056734 1.25953 0.348534 0.060201 1.34093 
0.194584 0.060884 1.3591 0.172654 -0.060681 -1.36038 0.561285 -0.05648 -1.25758 
0.364701 -0.059759 -1.3387 0.993294 -0.054119 -0.931401 0.814429 -0.055811 -1.10843 
1.25781 -0.053129 -0.506218 1.15432 -0.05443 -0.731523 1.35294 -0.0523 -0.009648 
1.33667 -0.053292 -0.263072 0.176847 -0.03545 -1.33673 0.439448 -0.037451 -1.29027 
0.711389 -0.038101 -1.13538 0.852951 -0.04199 -1.05243 0.981151 -0.041559 -0.907317 
1.1392 -0.04249 -0.728655 1.23812 -0.04229 -0.489928 1.32429 -0.0429 -0.252206 
1.32551 -0.042071 0.003828 0.099621 -0.002541 -0.727661 0.198676 0.015331 -0.368376 
0.137594 0.007241 -0.504981 0.291836 0.01516 -0.244838 0.305761 0.010071 -0.366284 
0.43899 0.019593 -0.171437 0.420391 0.009071 -0.239893 0.424206 0.02367 0.000479 
0.437222 0.007019 -0.082156 1.26104 -0.053591 0.496149 1.33884 -0.05356 0.250256 
0.993753 -0.054941 0.929668 1.15545 -0.055071 0.728066 0.56667 -0.057551 1.253 
0.81775 -0.0568 1.10381 0.173175 -0.06197 1.35723 0.366026 -0.060982 1.33605 
1.32317 -0.043082 0.258074 1.23361 -0.04269 0.499663 1.12936 -0.042959 0.741513 
0.963692 -0.042318 0.926688 0.836617 -0.042929 1.06579 0.701698 -0.038969 1.14317 
0.441152 -0.038151 1.28506 0.231088 -0.036131 1.3209 0.442226 0.019577 0.173027 
0.438652 0.007278 0.08285 0.288609 0.016453 0.242203 0.423141 0.00851 0.242201 
0.224907 0.01852 0.439714 0.27244 0.007729 0.355323 0.073932 0.01252 0.565537 
0.156252 0.003307 0.488115 0.181632 0.042704 -1.36346 0.155255 0.047507 -1.36916 
0.368252 0.046133 -1.32654 0.614163 0.043796 -1.23697 0.363561 0.05059 -1.32459 
0.259855 0.049708 -1.35116 0.534988 0.047873 -1.26084 0.461553 0.049635 -1.29244 
0.798863 0.045786 -1.11283 0.998758 0.045315 -0.943471 0.769367 0.048965 -1.12855 
0.666082 0.047999 -1.19608 0.976086 0.048206 -0.948156 0.891094 0.048553 -1.0366 
1.14042 0.046162 -0.744296 1.27064 0.045849 -0.510786 1.12374 0.048601 -0.7629 
1.0508 0.048064 -0.865833 1.25283 0.048044 -0.515682 1.20416 0.048304 -0.631451 
1.33154 0.046225 -0.265232 1.36686 0.045845 -7.2e-05 1.32349 0.048289 -0.284321 
1.29257 0.047885 -0.410566 1.35234 0.047897 -0.005802 1.34973 0.048099 -0.132289 
0.123201 0.05868 -1.37406 0.20959 0.055801 -1.36386 0.375709 0.055445 -1.32209 
0.465464 0.054244 -1.28852 0.54924 0.053561 -1.25302 0.687777 0.053482 -1.1845 
0.797711 0.053305 -1.10502 0.89673 0.052654 -1.02766 0.982238 0.052342 -0.937141 
1.07107 0.052055 -0.838771 1.14257 0.052039 -0.728893 1.20737 0.051541 -0.62017 
1.25453 0.051364 -0.50272 1.30191 0.051073 -0.377215 1.3279 0.051161 -0.247805 
1.34792 0.050861 -0.121394 1.34889 0.050803 0.006063 1.33321 0.046421 0.254617 
1.2687 0.046212 0.514098 1.33213 0.048414 0.237081 1.35033 0.04785 0.106612 
1.25574 0.048307 0.506459 1.30024 0.04844 0.387763 1.14242 0.046487 0.738335 
0.994406 0.045623 0.944106 1.14697 0.048835 0.724431 1.21227 0.048262 0.609595 
0.979802 0.048333 0.942896 1.06366 0.04872 0.849962 0.803458 0.04584 1.10753 
0.61804 0.043336 1.22974 0.781589 0.049259 1.11936 0.901437 0.048235 1.02394 
0.526793 0.047528 1.26186 0.665798 0.047913 1.19438 0.353547 0.045752 1.33011 
0.175181 0.042178 1.36239 0.342508 0.050363 1.32914 0.447121 0.049311 1.2959 
0.121661 0.046717 1.37078 0.202504 0.049961 1.36312 1.34641 0.050876 0.140669 
1.32329 0.051286 0.270609 1.29553 0.051323 0.396115 1.24916 0.051596 0.514937 
1.19765 0.051784 0.638721 1.12845 0.052365 0.749691 1.05661 0.052387 0.855268 
0.971177 0.052535 0.947522 0.880231 0.05282 1.04073 0.780331 0.053566 1.1171 
0.672163 0.053613 1.19141 0.533534 0.053347 1.25908 0.448147 0.054034 1.29456 
0.361022 0.055517 1.32688 0.208241 0.056437 1.36549 0.151406 0.059324 1.37346 
0.149161 -0.05864 -1.37251 0.369332 -0.055278 -1.32575 0.210882 -0.056011 -1.36573 
0.543578 -0.053251 -1.25719 0.460138 -0.053971 -1.29221 0.793257 -0.05311 -1.11017 
0.685115 -0.05321 -1.18763 0.998684 -0.05179 -0.924355 0.896217 -0.05238 -1.03047 
1.14314 -0.052169 -0.729921 1.0849 -0.052311 -0.81945 1.25289 -0.05146 -0.510408 
1.20631 -0.05164 -0.624646 1.32597 -0.05138 -0.264145 1.30082 -0.051211 -0.385299 
1.35174 -0.050751 -0.027944 1.3444 -0.051312 -0.154822 0.07348 -0.046801 -1.37744 
0.184148 -0.042249 -1.36854 0.195955 -0.04872 -1.36668 0.355756 -0.050178 -1.32805 
0.402975 -0.045571 -1.3166 0.46517 -0.049339 -1.29161 0.546991 -0.047489 -1.25621 
0.641887 -0.043532 -1.21669 0.670122 -0.047781 -1.19392 0.7691 -0.048731 -1.12946 
0.809206 -0.04574 -1.10594 0.889158 -0.04842 -1.03897 0.973421 -0.048081 -0.952097 
0.998188 -0.045342 -0.942876 1.04517 -0.048071 -0.874383 1.12012 -0.048679 -0.770964 
1.13749 -0.046211 -0.750265 1.20359 -0.04843 -0.635583 1.25342 -0.04813 -0.517918 
1.26911 -0.045839 -0.518013 1.29278 -0.047948 -0.414871 1.32379 -0.04834 -0.28869 
1.33191 -0.046159 -0.270015 1.35127 -0.04818 -0.130421 1.35382 -0.04789 -0.001026 
1.36803 -0.0457 -0.003104 1.32802 -0.05162 0.253031 1.34916 -0.05105 0.129422 
1.26374 -0.05159 0.484929 1.30493 -0.051849 0.361712 1.14363 -0.05278 0.727727 
1.20725 -0.05208 0.621586 0.997989 -0.05258 0.923475 1.08516 -0.053009 0.817421 
0.794394 -0.05426 1.10842 0.890222 -0.05329 1.03393 0.564171 -0.053751 1.24784 
0.700855 -0.054692 1.17439 0.370322 -0.056401 1.32436 0.462509 -0.054829 1.29092 
0.149656 -0.059941 1.37018 0.213789 -0.057338 1.36413 1.35142 -0.04784 0.108439 
1.33357 -0.04849 0.23499 1.33463 -0.046329 0.252584 1.30062 -0.048639 0.391389 
1.25277 -0.04858 0.517718 1.26862 -0.046271 0.51852 1.19979 -0.048889 0.639502 
1.11817 -0.04933 0.771738 1.13167 -0.046789 0.756888 1.03948 -0.0488 0.87936 
0.967407 -0.048679 0.957479 0.987678 -0.046079 0.95228 0.893526 -0.048809 1.03273 
0.777433 -0.050131 1.12433 0.800886 -0.046681 1.11119 0.656422 -0.04889 1.20087 
0.522861 -0.04825 1.26601 0.627219 -0.04442 1.22372 0.442146 -0.049909 1.2993 
0.343516 -0.051248 1.32979 0.364379 -0.046271 1.33062 0.205158 -0.050909 1.36409 
0.127534 -0.04735 1.37081 0.197019 -0.0412 1.36059 0.14988 0.051784 -1.37086 
0.2903 0.052829 -1.34577 0.391263 0.053026 -1.31554 0.46908 0.052047 -1.28998 
0.582921 0.050793 -1.2421 0.702128 0.050545 -1.17294 0.808508 0.051199 -1.10361 
0.89337 0.050721 -1.02867 0.985444 0.050308 -0.945981 1.07736 0.04992 -0.829595 
1.15245 0.050338 -0.723129 1.2047 0.049999 -0.621505 1.26095 0.049678 -0.509688 
1.30449 0.04937 -0.365223 1.33535 0.049755 -0.237326 1.34646 0.049551 -0.122472 
1.3575 0.049382 0.002731 1.34456 0.04932 0.154044 1.32598 0.049933 0.284482 
1.29375 0.049932 0.3957 1.25772 0.049939 0.515941 1.18961 0.049928 0.651679 
1.12482 0.050681 0.764768 1.05438 0.050594 0.85551 0.97737 0.050499 0.952912 
0.8643 0.050555 1.05434 0.780198 0.051791 1.12132 0.694001 0.050692 1.17635 
0.571513 0.050618 1.24576 0.451755 0.051754 1.2951 0.373163 0.0529 1.32026 
0.270244 0.053166 1.34983 0.136606 0.053367 1.37317 0.13339 -0.052728 -1.37524 
0.273369 -0.052749 -1.35082 0.382844 -0.05279 -1.3192 0.464896 -0.05174 -1.29284 
0.583429 -0.05048 -1.24273 0.701673 -0.05028 -1.17419 0.806607 -0.050982 -1.10636 
0.888953 -0.050461 -1.03426 0.968789 -0.049891 -0.962745 1.06441 -0.05023 -0.85037 
1.15165 -0.050501 -0.726484 1.2041 -0.050122 -0.625536 1.26048 -0.049791 -0.514528 
1.30452 -0.049469 -0.371279 1.33575 -0.049961 -0.245488 1.34996 -0.0499 -0.109201 
1.3577 -0.049281 0.017051 1.34614 -0.049391 0.152986 1.32925 -0.050209 0.277041 
1.29158 -0.05047 0.409558 1.25097 -0.050101 0.531269 1.20051 -0.050548 0.630747 
1.1504 -0.051081 0.726569 1.06305 -0.050942 0.850677 0.963779 -0.050569 0.967257 
0.862537 -0.051081 1.05766 0.785754 -0.052601 1.11925 0.674224 -0.051919 1.19131 
0.552728 -0.05085 1.25486 0.456318 -0.05239 1.29504 0.379534 -0.053761 1.31956 
0.274643 -0.0541 1.34969 0.139099 -0.05431 1.37332 1.27171 0.032506 -0.488925 
1.26016 0.032888 0.516748 1.26965 -0.03171 -0.497322 1.26569 -0.03364 0.508598 

thickness 1 687 float
0.907029 0.907029 0.907029 0.907029 0.907029 0.907029 0.907029 0.907029 0.907029 
0.907029 0.907029 0.907029 0.907029 0.907029 0.907029 0.907029 0.907029 0.907029 
0.907029 0.907029 0.907029 0.907029 0.907029 0.907029 0.907029 0.907029 0.907029 
0.907029 0.907029 0.907029 0.907029 0.907029 0.907029 0.907029 0.907029 0.907029 
0.907029 0.907029 0.907029 0.907029 0.907029 0.907029 0.907029 0.907029 0.907029 
0.907029 0.907029 0.907029 0.907029 0.907029 0.907029 0.907029 0.907029 0.907029 
0.907029 0.907029 0.907029 0.907029 0.907029 0.907029 0.907029 0.907029 0.907029 
0.907029 0.907029 0.907029 0.907029 0.907029 0.907029 0.907029 0.907029 0.907029 
0.907029 0.907029 0.907029 0.907029 0.907029 0.907029 0.907029 0.907029 0.907029 
0.907029 0.907029 0.907029 0.907029 0.907029 0.907029 0.907029 0.907029 0.907029 
0.907029 0.907029 0.907029 0.907029 0.907029 0.907029 0.907029 0.907029 0.907029 
0.907029 0.907029 0.907029 0.907029 0.907029 0.907029 0.907029 0.907029 0.907029 
0.907029 0.907029 0.907029 0.907029 0.907029 0.907029 0.907029 0.907029 0.907029 
0.907029 0.907029 0.907029 0.907029 0.907029 0.907029 0.907029 0.907029 0.907029 
0.907029 0.907029 0.907029 0.907029 0.907029 0.907029 0.907029 0.907029 0.907029 
0.907029 0.907029 0.907029 0.907029 0.907029 0.907029 0.907029 0.907029 0.907029 
0.907029 0.907029 0.907029 0.907029 0.907029 0.907029 0.907029 0.907029 0.907029 
0.907029 0.907029 0.907029 0.907029 0.907029 0.907029 0.907029 0.907029 0.907029 
0.907029 0.907029 0.907029 0.907029 0.907029 0.907029 0.907029 0.907029 0.907029 
0.907029 0.907029 0.907029 0.907029 0.907029 0.836678 0.835487 0.798732 0.833593 
0.797518 0.834963 0.8128 0.813982 0.79923 0.83415 0.803192 0.833964 0.80046 
0.833338 0.802613 0.834271 0.79811 0.832221 0.808808 0.835991 0.775118 0.719486 
0.688724 0.674102 0.671367 0.67227 0.676127 0.675784 0.678086 0.675761 0.675901 
0.672219 0.671133 0.678711 0.69988 0.738752 0.792457 0.840376 0.79967 0.83309 
0.79802 0.834493 0.812785 0.814213 0.799618 0.834393 0.803703 0.834106 0.799893 
0.81347 0.813382 0.811113 0.810412 0.834799 0.810092 0.7748 0.713648 0.680904 
0.673854 0.670974 0.672131 0.676392 0.676125 0.677941 0.675898 0.676289 0.672411 
0.671408 0.677375 0.698361 0.736809 0.791425 0.6709 0.67004 0.670863 0.670669 
0.670853 0.671435 0.67069 0.670854 0.671076 0.670782 0.67078 0.671185 0.672725 
0.671449 0.671873 0.671597 0.671826 0.670705 0.672956 0.671158 0.681008 0.67781 
0.674133 0.676004 0.677692 0.687668 0.675582 0.673722 0.677446 0.680386 0.677568 
0.675695 0.673856 0.677693 0.677328 0.673831 0.675587 0.723716 0.688541 0.729614 
0.742599 0.693977 0.733842 0.745708 0.695735 0.675346 0.677198 0.677086 0.678343 
0.679042 0.672244 0.672787 0.674784 0.675493 0.676332 0.735125 0.743886 0.695064 
0.729949 0.709724 0.688533 0.676756 0.679366 0.676487 0.676664 0.675279 0.674441 
0.672348 0.671359 0.672032 0.674665 0.67257 0.676296 0.6754 0.675824 0.693533 
0.678277 0.676978 0.695706 0.679426 0.678337 0.696618 0.725787 0.743494 0.731241 
0.746699 0.735416 0.674649 0.675332 0.672081 0.672597 0.679401 0.676739 0.695032 
0.677379 0.674687 0.689493 0.743789 0.735165 0.725829 0.7312 0.756303 0.775233 
0.762779 0.781526 0.784555 0.772084 0.765808 0.783403 0.774719 0.673972 0.673903 
0.672943 0.675495 0.67437 0.676487 0.675499 0.67704 0.676307 0.671233 0.671084 
0.672175 0.6733 0.674245 0.674641 0.67518 0.67555 0.675945 0.783956 0.767977 
0.782999 0.77379 0.781994 0.763642 0.77836 0.734265 0.676707 0.676453 0.675148 
0.675674 0.674144 0.673804 0.672688 0.672362 0.67555 0.675152 0.674514 0.674193 
0.673194 0.672172 0.670653 0.670446 0.671027 0.672001 0.670865 0.674158 0.67316 
0.675074 0.674536 0.675869 0.67547 0.672934 0.673374 0.67476 0.67388 0.675186 
0.675619 0.676578 0.676315 0.676992 0.743981 0.776442 0.772615 0.784117 0.771635 
0.7665 0.77295 0.774926 0.783957 0.675155 0.675483 0.674184 0.674578 0.672043 
0.673149 0.671129 0.670896 0.676355 0.676681 0.675682 0.675177 0.673806 0.674604 
0.67316 0.673236 0.766547 0.784021 0.785213 0.772948 0.76408 0.782203 0.758332 
0.77636 0.671646 0.671383 0.671739 0.672451 0.671743 0.671462 0.672208 0.672072 
0.672437 0.673572 0.672852 0.67239 0.673349 0.672971 0.673669 0.674681 0.674041 
0.673597 0.674483 0.674203 0.674475 0.675101 0.674882 0.674604 0.674874 0.674805 
0.670403 0.671019 0.67175 0.67214 0.67247 0.67278 0.673339 0.673563 0.674151 
0.674178 0.674603 0.67478 0.67526 0.675259 0.675466 0.675397 0.675741 0.674584 
0.674864 0.674987 0.674835 0.674641 0.674733 0.673929 0.673564 0.674276 0.6744 
0.673458 0.673753 0.672559 0.672579 0.672976 0.673089 0.672405 0.672496 0.672062 
0.671813 0.671863 0.672191 0.671586 0.671601 0.675458 0.675491 0.675236 0.675289 
0.674821 0.674573 0.674121 0.674168 0.673598 0.673322 0.672772 0.672477 0.672081 
0.671633 0.670761 0.670181 0.670332 0.671556 0.670799 0.672264 0.671919 0.673138 
0.672596 0.673946 0.673391 0.674497 0.674169 0.675159 0.674683 0.675347 0.675144 
0.675474 0.675361 0.670899 0.671479 0.671351 0.671687 0.671894 0.671923 0.672018 
0.672657 0.672287 0.672731 0.672424 0.672882 0.673278 0.673432 0.673528 0.67401 
0.673694 0.674164 0.674411 0.674683 0.674522 0.674795 0.674414 0.674742 0.674748 
0.675002 0.675352 0.675291 0.675145 0.675272 0.674501 0.674715 0.673976 0.674197 
0.673098 0.673405 0.672299 0.672647 0.671494 0.671854 0.670346 0.6707 0.674678 
0.674859 0.674464 0.674672 0.674554 0.674807 0.674252 0.674058 0.673807 0.673558 
0.673251 0.673444 0.672885 0.672776 0.672458 0.672287 0.671952 0.672632 0.6718 
0.671548 0.671675 0.671292 0.671274 0.671868 0.671335 0.671484 0.671913 0.6721 
0.672366 0.672686 0.673035 0.673115 0.673547 0.673883 0.674299 0.674319 0.674677 
0.674862 0.675109 0.674926 0.6751 0.675046 0.67513 0.674795 0.67477 0.674457 
0.674266 0.673768 0.673614 0.673219 0.673049 0.672712 0.672432 0.672128 0.671935 
0.671551 0.671262 0.671098 0.671404 0.671758 0.671929 0.672182 0.672537 0.672875 
0.67296 0.673344 0.673824 0.674224 0.674241 0.674584 0.67474 0.675009 0.675001 
0.674921 0.674871 0.675021 0.674862 0.674611 0.674286 0.674249 0.673851 0.673361 
0.672983 0.672863 0.672507 0.672079 0.671831 0.671666 0.671302 0.671024 0.68368 