# vtk DataFile Version 3.0
vtk output
ASCII
DATASET UNSTRUCTURED_GRID
POINTS 687 float
5 7 10 5 7 10 5 8 11.25 
5 8.25 11 5 8 10 5 7 11.25 
5 7.5 13 5 8 12.5 5 7 10.3125 
5 7 10.625 5 7 10.9375 5 7.38766 11.25 
5 7.64592 11.25 5 7.80052 11.25 5 7.90878 11.25 
5 8.01755 11.158 5 8.07322 11.0732 5 8.15798 11.0176 
5 8.25 10.1644 5 8.25 10.3763 5 8.25 10.5485 
5 8.25 10.6871 5 8.25 10.8026 5 8.25 10.9045 
5 7.74324 10 5 7.41786 10 5 7 11.6875 
5 7 12.125 5 7 12.5625 5 7.30926 13 
5 7.68405 12.9649 5 7.85355 12.8536 5 7.96489 12.684 
5 8 12.3065 5 8 12.1233 5 8 11.9567 
5 8 11.8086 5 8 11.6771 5 8 11.5591 
5 8 11.4509 5 8 11.3489 5 7.93205 11.0425 
5 7.80734 11.0245 5 7.67859 10.99 5 7.51824 10.9746 
5 7.32515 10.9611 5 8.01086 10.2002 5 8.03769 10.3933 
5 8.06323 10.5667 5 8.09469 10.7162 5 8.13242 10.8231 
5 8.14712 10.922 5 7.39469 10.6822 5 7.65901 10.6508 
5 7.8705 10.6089 5 7.93308 10.788 5 7.93412 10.9257 
5 7.7282 10.8379 5 7.82322 10.9294 5 7.54704 10.8316 
5 8.04809 10.9431 5 8.03786 10.8514 5 7.44218 10.3424 
5 7.75573 10.2431 5 7.82664 10.4299 5 7.64261 10.4744 
5 7.91347 11.1466 5 7.79547 11.136 5 7.66053 11.123 
5 7.52214 11.1159 5 7.44943 11.7066 5 7.68075 11.6735 
5 7.84745 11.667 5 7.40022 12.1904 5 7.64784 12.1371 
5 7.83294 12.1302 5 7.85639 12.4875 5 7.71852 12.5169 
5 7.5621 12.5627 5 7.35291 12.6213 5 7.84497 12.3142 
5 7.69057 12.3325 5 7.55096 12.3619 5 7.62604 12.7508 
5 7.76505 12.6851 5 7.86211 12.6189 5 7.49298 12.7907 
5 7.85524 11.8031 5 7.83896 11.9463 5 7.6677 11.8951 
5 7.73456 11.7906 5 7.8089 11.3764 5 7.85382 11.5144 
5 7.6916 11.5296 5 7.67156 11.3874 5 7.56029 11.5433 
5 7.53983 11.3935 5 7.90972 11.3537 5 7.92118 11.4397 
5 24 8 5 24 9 5 19.75 8 
5 16 9 5 16 11 5 11.25 9 
5 11.25 11 5 8.25 9.923 5 0 13 
5 0 10 5 7 13 0 8.1543 11.019 
0 8.07322 11.0732 0 8.01904 11.1543 0 8 11.25 
2.5 8.25 11 2.5 8.15432 11.019 2.5 8.07324 11.0732 
2.5 8.01903 11.1543 2.5 8 11.25 5 8.15434 11.019 
5 8.01902 11.1543 0 7.96192 12.6914 0 7.85355 12.8536 
0 7.6914 12.9619 2.5 8 12.5 2.5 7.96192 12.6914 
2.5 7.85355 12.8536 2.5 7.6914 12.9619 2.5 7.5 13 
5 7.96192 12.6914 5 7.6914 12.9619 0 24 9 
0 24 8 0 16 9 0 16 11 
0 0 10 0 0 13 0 8.25 11 
0 8 12.5 0 7.5 13 0 26 8 
7 26 8 7 24 8 7 19.75 8 
7 16 9 7 11.25 9 7 8 10 
7 0 10 7 -2 10 0 -2 10 
0 0 -11 0 0 -8 0 -2 -8 
5 -2 -8 7 -2 -8 5 0 -8 
5 0 -11 5 8 -11 5 8 -8 
7 8 -8 5 11.25 -11 5 11.25 -9 
7 11.25 -9 5 16 -11 5 16 -9 
7 16 -9 5 19.75 -11 5 19.75 -10 
7 19.75 -10 0 24 -11 0 24 -10 
5 24 -10 5 24 -11 0 26 -10 
5 26 -10 7 26 -10 0 -12 -4 
0 -12 4 0.59691 -12 -3.95521 1.23343 -12 -3.80508 
1.86684 -12 -3.53764 2.4031 -12 -3.19767 2.82877 -12 -2.82808 
3.32044 -12 -2.2304 3.73551 -12 -1.43038 3.93533 -12 -0.71638 
3.99986 -12 0.03336 3.92368 -12 0.77765 3.70276 -12 1.51312 
3.35693 -12 2.17509 2.89656 -12 2.75861 2.35395 -12 3.23403 
1.75721 -12 3.59335 1.15512 -12 3.82958 0.56093 -12 3.96047 
0 36 4 0 -10.743 4 0 -8.8877 4 
0 -6.64749 4 0 -4.45202 4 0 -0.91936 4 
0 4.14518 4 0 6.58748 4 0 9.66416 4 
0 12.0556 4 0 14.4989 4 0 17.6266 4 
0 20.3196 4 0 24.9607 4 0 29.4472 4 
0 31.7102 4 0 33.6144 4 0 35.0694 4 
0 36 -4 0.59993 36 3.95476 1.23847 36 3.80344 
1.87132 36 3.53528 2.4058 36 3.19564 2.82825 36 2.8286 
3.31559 36 2.2376 3.73171 36 1.44025 3.93289 36 0.72964 
3.99999 36 0.00729 3.93339 36 -0.72693 3.7303 36 -1.44391 
3.33354 36 -2.21076 2.85148 36 -2.80519 2.28639 36 -3.28214 
1.63682 36 -3.64977 1.11455 36 -3.84158 0.56461 36 -3.95995 
0 34.661 -4 0 32.5627 -4 0 29.9725 -4 
0 27.9548 -4 0 24.936 -4 0 20.302 -4 
0 17.5542 -4 0 14.3512 -4 0 11.9689 -4 
0 9.52824 -4 0 6.40852 -4 0 3.7104 -4 
0 -0.45165 -4 0 -4.9424 -4 0 -7.504 -4 
0 -9.50153 -4 0 -11.0253 -4 0 2.06879 -4 
0 1.24817 -4 0 0.49795 -4 0 2.22891 4 
0 0.81573 4 0 -0.2654 4 0 21.9979 -4 
0 23.2408 -4 0 24.3368 -4 0 21.9532 4 
0 23.1639 4 0 24.2218 4 0 -2.85941 -4 
0 -1.4497 -4 0 -2.71248 4 0 -1.53432 4 
0 26.5263 -4 0 25.5061 -4 0 27.2927 4 
0 25.7706 4 2.28036 11.9291 -3.28633 1.91748 7.67834 -3.51045 
1.39183 4.80584 -3.75004 3.10004 4.74612 -2.5278 3.99902 4.81728 0.08855 
3.99929 11.9788 0.07526 3.01126 4.7799 2.63293 1.3206 4.94069 3.77571 
1.85925 7.75999 3.54164 2.26005 12.0455 3.30033 4 19.1687 0.00563 
3.05144 19.2212 -2.58625 1.3639 19.1697 -3.76029 1.9216 16.2623 -3.5082 
1.88377 16.3456 3.52866 1.37297 19.2307 3.75698 3.06558 19.3026 2.56948 
0.86913 -9.0538 -3.90444 1.36253 -6.45576 -3.76079 2.03706 -9.19679 -3.44244 
3.04279 -9.69606 -2.59642 3.11128 -6.58598 -2.51395 3.7595 -9.34266 -1.36607 
3.99985 -9.72826 0.03484 3.99986 -6.60452 0.03337 1.03898 -4.23036 -3.86271 
3.0157 -3.54152 -2.62784 2.05455 -4.03413 -3.43203 3.99994 -3.50264 0.0214 
3.74655 -3.86932 -1.40121 1.00023 2.98374 -3.87292 1.99481 2.63411 -3.46709 
2.98987 2.17564 -2.65719 3.74575 2.45304 -1.40334 3.9997 2.15958 0.04896 
3.72707 -9.3715 1.45222 2.9589 -9.71773 2.69164 3.0344 -6.63176 2.60623 
1.83862 -9.28024 3.55239 0.83367 -8.38579 3.91216 1.43719 -6.66098 3.73289 
2.82548 -3.41986 2.83137 3.71431 -3.8546 1.48454 0.80231 -4.99714 3.91871 
1.77296 -4.35265 3.58561 3.70922 2.45004 1.49723 2.93365 2.16411 2.71913 
1.91758 2.60035 3.5104 0.80755 2.87316 3.91763 0.98341 21.0045 -3.87723 
2.96254 21.8143 -2.68763 1.97163 21.3626 -3.48032 4 21.8263 -0.0017 
3.72906 21.5439 -1.4471 0.84747 28.4195 -3.90919 1.34399 31.0003 -3.76745 
1.95439 28.5374 -3.49004 2.87262 27.5375 -2.78353 3.07745 30.8031 -2.55525 
3.72995 27.9379 -1.4448 3.99996 27.5711 0.01726 3.99996 30.7106 0.01826 
1.04168 33.1935 -3.86198 3.05671 33.7806 -2.58002 2.08878 33.3701 -3.4113 
3.99999 33.7855 0.01071 3.75229 33.4182 -1.38575 2.97043 21.8482 2.67891 
3.73117 21.5642 1.44167 0.98998 21.028 3.87556 1.97903 21.3942 3.47613 
3.71189 27.9005 1.4906 2.82811 27.4453 2.82874 3.04412 30.7018 2.59487 
1.93597 28.3735 3.50029 0.86823 28.146 3.90463 1.3057 30.7039 3.78089 
3.02368 33.7595 2.61866 3.74268 33.397 1.41152 0.86284 33.1639 3.90583 
2.02665 33.2848 3.44858 0.53032 -10.5458 -3.96469 1.24149 -10.7951 -3.80246 
1.85972 -10.739 -3.54139 2.44302 -10.9691 -3.16728 3.06586 -11.1071 -2.56914 
3.48459 -10.8306 -1.96409 3.7465 -10.7956 -1.40133 3.93436 -10.9762 -0.72168 
3.99993 -10.9299 0.02358 0.54517 -3.49606 -3.96268 1.86409 -2.61933 -3.53909 
1.12497 -2.64827 -3.83855 2.9571 -2.35459 -2.69361 2.44919 -2.36751 -3.16251 
3.72692 -2.41852 -1.45261 3.39583 -2.27834 -2.11384 3.99998 -2.31918 0.01383 
3.93224 -2.2631 -0.73315 0.48601 2.25066 -3.97036 1.03264 1.61027 -3.86441 
1.64176 1.01027 -3.64755 2.37715 1.13073 -3.21701 2.91683 0.91806 -2.73717 
3.38248 1.09831 -2.13514 3.72047 0.97203 -1.46904 3.93264 1.103 -0.73102 
3.99992 0.92061 0.02526 3.92483 -10.9867 0.77183 3.71071 -10.8422 1.49354 
3.3623 -10.9829 2.16677 2.9046 -10.9215 2.75014 2.34975 -10.9585 3.23708 
1.73632 -10.8351 3.6035 1.08728 -11.0164 3.84939 0.76552 -9.85185 3.92606 
3.70832 -2.40724 1.49945 3.9251 -2.25836 0.77044 2.9009 -2.24119 2.75405 
3.3515 -2.23326 2.18344 2.02728 -2.75573 3.44821 2.48468 -2.05245 3.1347 
0.75188 -3.60736 3.9287 1.14269 -2.47261 3.83331 3.92189 1.10123 0.78663 
3.70058 0.96959 1.51845 3.351 1.09403 2.18422 2.88114 0.91095 2.77471 
2.33539 1.11346 3.24745 1.59742 0.95017 3.66719 0.99331 1.51146 3.87471 
0.55744 1.91642 3.96097 0.49282 21.7568 -3.96953 1.62708 22.9996 -3.65412 
1.03614 22.3695 -3.86347 2.91706 23.0854 -2.73692 2.36484 22.8705 -3.22607 
3.71028 23.0214 -1.4946 3.37648 22.8891 -2.14462 3.9999 23.0778 -0.02841 
3.92467 22.8842 -0.77261 0.51979 26.9399 -3.96608 1.2839 26.7399 -3.78835 
2.11377 26.9015 -3.39588 2.52051 26.1316 -3.10597 2.93463 26.3152 -2.71807 
3.36843 26.2864 -2.15724 3.71832 26.4622 -1.47449 3.92922 26.2994 -0.74917 
3.99998 26.3685 0.01184 0.55062 33.9394 -3.96192 1.97271 35.0239 -3.47972 
1.14169 34.811 -3.83361 3.08146 35.1197 -2.55042 2.58816 34.8824 -3.04982 
3.73846 34.839 -1.42265 3.48539 34.8596 -1.96266 3.99999 34.9623 0.00668 
3.93189 35.0007 -0.73504 3.72154 23.0373 1.46633 3.93176 22.8918 0.73573 
2.91935 23.0975 2.73448 3.38141 22.9046 2.13684 1.64466 23.007 3.64624 
2.37652 22.8746 3.21747 0.49487 21.7358 3.96927 1.0407 22.3613 3.86225 
3.92575 26.2931 0.76713 3.70601 26.448 1.50515 3.34197 26.263 2.198 
2.88063 26.2536 2.77524 2.47122 26.0537 3.14532 2.08148 26.8047 3.41576 
1.2917 26.6842 3.7857 0.68296 26.9319 3.94126 3.73438 34.8292 1.43333 
3.92972 34.9963 0.74652 3.0571 35.1329 2.57956 3.47547 34.8531 1.98018 
1.86379 34.7857 3.53925 2.44652 34.9947 3.16457 0.53235 34.5863 3.96442 
1.24874 34.8315 3.80009 0.52811 -1.66823 -3.96498 0.45204 -0.84639 -3.97438 
1.07292 -1.10687 -3.85342 1.78369 -1.62004 -3.58029 1.06326 -0.32748 -3.8561 
0.75907 -0.48267 -3.92732 1.56772 -0.81885 -3.67998 1.35017 -0.49395 -3.76524 
2.33715 -1.17613 -3.24619 2.91025 -1.38515 -2.74416 2.25846 -0.53158 -3.30142 
1.95131 -0.75918 -3.49176 2.87334 -0.66995 -2.78279 2.61278 -0.56887 -3.02876 
3.35142 -1.10734 -2.18357 3.71158 -1.36738 -1.49136 3.31205 -0.49745 -2.24284 
3.09024 -0.6604 -2.53977 3.69991 -0.6572 -1.52008 3.54448 -0.54599 -1.85383 
3.92279 -1.09408 -0.78213 4 -1.34705 -0.00312 3.9109 -0.48582 -0.83958 
3.81268 -0.64663 -1.20974 3.99995 -0.64705 -0.01926 3.98089 -0.53487 -0.39052 
0.35215 1.2147 -3.98447 0.60895 0.58968 -3.95338 1.09375 0.62285 -3.84756 
1.36124 0.41025 -3.76125 1.6086 0.31642 -3.6623 2.01162 0.35229 -3.45737 
2.34331 0.45551 -3.24174 2.63225 0.38019 -3.01185 2.89599 0.38569 -2.75921 
3.15088 0.35872 -2.46413 3.37306 0.45257 -2.15 3.5589 0.39074 -1.82599 
3.71344 0.41132 -1.48674 3.84224 0.37865 -1.1123 3.93218 0.46215 -0.73344 
3.98386 0.3871 -0.35896 3.99996 0.39629 0.01684 3.92995 -1.09117 0.7453 
3.70953 -1.35634 1.49646 3.93889 -0.48438 0.69651 3.98788 -0.64025 0.3112 
3.71222 -0.65148 1.48977 3.8347 -0.53622 1.13801 3.36409 -1.08533 2.16399 
2.90685 -1.3059 2.74777 3.38661 -0.48683 2.12859 3.57735 -0.64249 1.78958 
2.88925 -0.63887 2.76626 3.13069 -0.53105 2.48974 2.35752 -1.09709 3.23142 
1.80695 -1.5696 3.5686 2.29815 -0.43655 3.27391 2.65143 -0.62659 2.99499 
[...]
POINT_DATA 687
FIELD FieldData 2
displacement 3 687 float
0 0 0 0 0 -6.3 0 0 -6.3 
0 0 -6.3 0 0 -6.3 0 0 -6.3 
0 0 -6.3 0 0 -6.3 0 0 -6.3 
0 0 -6.3 0 0 -6.3 0 0 -6.3 
0 0 -6.3 0 0 -6.3 0 0 -6.3 
0 0 -6.3 0 0 -6.3 0 0 -6.3 
0 0 -6.3 0 0 -6.3 0 0 -6.3 
0 0 -6.3 0 0 -6.3 0 0 -6.3 
0 0 -6.3 0 0 -6.3 0 0 -6.3 
0 0 -6.3 0 0 -6.3 0 0 -6.3 
0 0 -6.3 0 0 -6.3 0 0 -6.3 
0 0 -6.3 0 0 -6.3 0 0 -6.3 
0 0 -6.3 0 0 -6.3 0 0 -6.3 
0 0 -6.3 0 0 -6.3 0 0 -6.3 
0 0 -6.3 0 0 -6.3 0 0 -6.3 
0 0 -6.3 0 0 -6.3 0 0 -6.3 
0 0 -6.3 0 0 -6.3 0 0 -6.3 
0 0 -6.3 0 0 -6.3 0 0 -6.3 
0 0 -6.3 0 0 -6.3 0 0 -6.3 
0 0 -6.3 0 0 -6.3 0 0 -6.3 
0 0 -6.3 0 0 -6.3 0 0 -6.3 
0 0 -6.3 0 0 -6.3 0 0 -6.3 
0 0 -6.3 0 0 -6.3 0 0 -6.3 
0 0 -6.3 0 0 -6.3 0 0 -6.3 
0 0 -6.3 0 0 -6.3 0 0 -6.3 
0 0 -6.3 0 0 -6.3 0 0 -6.3 
0 0 -6.3 0 0 -6.3 0 0 -6.3 
0 0 -6.3 0 0 -6.3 0 0 -6.3 
0 0 -6.3 0 0 -6.3 0 0 -6.3 
0 0 -6.3 0 0 -6.3 0 0 -6.3 
0 0 -6.3 0 0 -6.3 0 0 -6.3 
0 0 -6.3 0 0 -6.3 0 0 -6.3 
0 0 -6.3 0 0 -6.3 0 0 -6.3 
0 0 -6.3 0 0 -6.3 0 0 -6.3 
0 0 -6.3 0 0 -6.3 0 0 -6.3 
0 0 -6.3 0 0 -6.3 0 0 -6.3 
0 0 -6.3 0 0 -6.3 0 0 -6.3 
0 0 -6.3 0 0 -6.3 0 0 -6.3 
0 0 -6.3 0 0 -6.3 0 0 -6.3 
0 0 -6.3 0 0 -6.3 0 0 -6.3 
0 0 -6.3 0 0 -6.3 0 0 -6.3 
0 0 -6.3 0 0 -6.3 0 0 -6.3 
0 0 -6.3 0 0 -6.3 0 0 -6.3 
0 0 -6.3 0 0 -6.3 0 0 -6.3 
0 0 -6.3 0 0 -6.3 0 0 -6.3 
0 0 -6.3 0 0 -6.3 0 0 -6.3 
0 0 -6.3 0 0 -6.3 0 0 -6.3 
0 0 -6.3 0 0 -6.3 0 0 -6.3 
0 0 -6.3 0 0 -6.3 0 0 -6.3 
0 0 -6.3 0 0 -6.3 0 0 -6.3 
0 0 8.775 0 0 8.775 0 0 8.775 
0 0 8.775 0 0 8.775 0 0 8.775 
0 0 8.775 0 0 8.775 0 0 8.775 
0 0 8.775 0 0 8.775 0 0 8.775 
0 0 8.775 0 0 8.775 0 0 8.775 
0 0 8.775 0 0 8.775 0 0 8.775 
0 0 8.775 0 0 8.775 0 0 8.775 
0 0 8.775 0 0 8.775 0 0 8.775 
0 0 8.775 0 0 8.775 0 0 0 
0 0 0 0 0 0 0 0 0 
0 0 0 0 0 0 0 0 0 
0 0 0 0 0 0 0 0 0 
0 0 0 0 0 0 0 0 0 
0 0 0 0 0 0 0 0 0 
0 0 0 0 0 0 0 0 0 
0 0 0 0 -1.19635 1.50854 0 -1.71025 3.33227 
0 -0.985366 4.75865 0 0.355076 4.04721 0 -0.373079 -0.3 
0 -0.274874 2.49519 0 0.281778 2.33772 0 0.30645 0.7 
0 0.44672 0.7 0 0.68002 0.561879 0 0.173941 -1.3 
0 0.227001 -1.3 0 0.18755 -2.3 0 -1.00506 2.89734 
0 0.11743 3.36216 0 0.697002 2.37233 0 0.466462 1.05826 
0 0 0 0 0 0 0 0 0 
0 0 0 0 0 0 0 0 0 
0 0 0 0 0 0 0 0 0 
0 0 0 0 0 0 0 0 0 
0 0 0 0 0 0 0 0 0 
0 0 0 0 0 0 0 0 0 
0 0.546421 -1.5024 0 0.267109 -3.10104 0 -1.09589 -3.00914 
0 -1.73274 -1.07289 0 -0.056469 2.775 -0 -0.214772 1.775 
0 -0.360969 1.775 0 -0.48246 1.775 -0 -0.50653 1.775 
0 -0.565995 1.775 0 -0.695068 1.775 0 -0.89136 1.85902 
0 -0.120528 4.775 0 2.77888 -1.22028 0 1.21869 -3.09715 
0 -0.064705 -2.45385 0 -0.23104 -1.11404 0 -0.932082 2.70122 
0 -0.786321 3.37475 0 -0.49795 4.08746 0 -0.692668 1.81551 
0 -0.607464 0.526803 0 -0.306666 -0.3 0 -0.058481 1.775 
0 0.086889 1.94305 0 -0.081558 2.775 0 0.30416 -1.3 
0 0.33479 -1.67532 -0 0.172491 -2.3 0 1.95916 2.54715 
0 -0.137782 4.775 0 0.615446 1.92553 0 -0.410332 -0.3 
0 -1.08101 1.24694 0 -0.03339 2.775 0 -1.38362 0.61588 
0 0.20265 -2.3 1.70079 -0.49815 1.06133 1.44302 -0.713541 1.41406 
0.988931 -0.752633 1.89565 1.89996 -0.387842 3.23797 3.26903 -0.328386 2.29926 
2.97004 -0.00359 1.45922 1.98874 -0.079006 1.12015 0.995328 -0.072752 2.30372 
1.30523 0.24001 1.62099 1.64951 0.54104 1.39967 2.73625 0.02043 0.356608 
1.68488 -0.276379 0.36125 0.714987 -0.241508 1.53529 1.07325 -0.35611 1.2832 
1.03878 0.25339 -0.82866 0.676001 0.22443 -1.05698 1.71253 0.25046 0.13052 
0.731207 0.106819 -2.6565 1.6707 1.71568 -2.4748 1.59879 -0.140296 -2.23308 
1.93161 -0.54554 -1.36624 3.48404 0.645555 -1.34678 2.64333 -0.85317 -0.613051 
2.37433 -1.1603 0.273028 4.237 -0.705942 1.02468 1.03493 2.55185 -0.007645 
2.55634 1.31845 0.861225 1.9517 2.1301 0.258795 3.65925 -0.162353 1.77954 
3.53427 0.469757 0.880583 0.576715 -0.879389 2.18593 1.16298 -0.681316 2.30108 
1.71238 -0.480755 2.41139 2.49934 -0.345826 2.17834 2.86552 -0.30364 2.23448 
2.50335 -1.44975 1.28943 1.72786 -1.52839 1.83 3.20408 -1.09508 3.43043 
1.26353 -1.70129 2.7735 0.697485 -1.60697 3.64884 1.54424 -1.02553 4.38825 
2.31878 0.055553 2.95588 3.45275 -0.3398 2.60764 0.821012 0.013042 4.30492 
1.69064 0.177712 3.8004 2.42647 -0.322062 2.20277 1.66293 -0.394031 1.93879 
1.14146 -0.447774 2.03182 0.487185 -0.535445 2.13424 0.470323 -0.1327 1.65223 
1.51581 0.00161 0.677006 0.972188 -0.076371 1.25532 2.68116 -0.017981 0.228089 
2.26695 -0.10881 0.2221 0.755995 -1.62822 -1.66463 1.36189 -0.441391 -3.17309 
1.70734 -1.29657 -1.6717 2.19892 -0.905031 -0.775785 3.04083 0.004409 -2.14217 
3.25161 -0.231798 -0.66089 3.42201 0.034189 0.17528 3.89506 0.54921 0.104331 
0.711373 0.483982 -2.55305 1.70692 0.769489 -1.44025 1.36155 0.621719 -2.21592 
2.19833 0.946278 0.028373 2.38517 0.890388 -0.859509 1.51959 0.306481 -0.207042 
2.30068 0.11936 0.25833 0.45523 0.25815 -1.17556 0.954718 0.267509 -0.77613 
3.21493 -0.10845 1.00443 2.12095 -0.68689 1.10393 2.97441 0.1683 2.32917 
1.63526 -0.99665 1.86929 0.724483 -1.28555 1.71498 1.30734 -0.28035 3.28093 
1.68047 0.856289 1.50879 2.37834 0.945827 0.933316 0.586976 0.64954 2.64081 
1.33243 0.744232 2.30949 0.225708 -0.2641 -1.56268 0.448267 -0.30372 -1.30491 
0.683574 -0.33788 -1.20018 0.766518 -0.38651 -0.923457 0.816539 -0.41848 -0.61587 
1.19318 -0.58197 -0.584047 1.27378 -0.65629 -0.385007 1.19114 -0.69283 -0.14757 
1.18625 -0.77396 0.088316 0.458106 2.30355 1.34138 1.17751 1.35474 2.56658 
0.705531 1.5944 2.7935 1.89441 0.788136 2.23771 1.47713 1.0315 2.5514 
2.87102 0.237645 1.68453 2.33734 0.529927 1.85856 3.26534 -0.215216 2.00568 
3.17458 -0.063028 1.81709 0.259047 -0.927062 2.57811 0.513865 -0.828044 2.98165 
0.765722 -0.629561 3.35068 1.20078 -0.553326 3.02554 1.58318 -0.395793 2.97058 
2.0391 -0.323507 2.91014 2.4668 -0.297807 2.40753 2.84173 -0.272502 2.22328 
2.93506 -0.28826 2.26377 1.15399 -0.83366 0.297782 1.16551 -0.94801 0.569984 
0.968085 -0.94586 0.719539 0.837223 -0.9896 0.892286 0.685268 -1.01617 1.03499 
0.535563 -1.07587 1.22772 0.275701 -0.99003 1.1565 0.434364 -1.52771 2.3834 
2.84343 -0.299809 2.34578 3.15114 -0.32543 2.23271 1.84703 -0.078391 1.94479 
2.30317 -0.197681 2.28074 1.36498 0.295313 2.13176 1.42435 -0.029454 1.52672 
0.641202 0.525987 3.08554 0.717573 0.433347 1.65546 2.78034 -0.310195 2.27885 
2.40308 -0.365546 2.05742 1.99695 -0.374888 1.51578 1.55224 -0.442592 1.28824 
1.18909 -0.527317 1.22057 0.7627 -0.570538 0.872758 0.506659 -0.668464 1.27464 
0.295375 -0.672804 1.54291 0.22702 -0.079701 1.74453 0.696871 0.072901 1.59373 
0.453064 -0.002069 1.63847 1.48371 0.034931 1.06748 1.08921 0.081909 1.24386 
2.32191 -0.030809 0.40506 1.92358 -0.004589 0.91962 2.80942 -0.01471 0.213776 
2.6703 -0.057631 0.196109 0.327705 -1.37966 0.525805 0.758981 -1.21318 0.687857 
1.31949 -1.06956 0.218304 1.36389 -0.549589 0.904826 1.76143 -0.531419 0.420323 
2.18822 -0.37648 0.050346 2.70592 -0.17952 -0.100994 3.00893 -0.01214 0.010174 
3.1065 0.03281 0.199173 0.289653 0.519718 -2.06077 0.517514 0.47768 -0.960561 
0.35105 0.5117 -1.30708 0.747811 0.494858 -0.637648 0.793763 0.555702 -0.959879 
1.15427 0.648114 -0.452659 1.08906 0.627689 -0.628722 1.10622 0.640091 0.008613 
1.10951 0.625919 -0.208688 2.3582 0.11565 0.059718 2.69815 0.02458 0.241524 
1.48438 0.255958 -0.619442 1.93655 0.1789 -0.43684 0.692867 0.342779 -1.22971 
1.08319 0.337651 -0.830367 0.219942 0.289339 -1.26927 0.435585 0.339859 -1.19683 
3.01325 0.046469 0.39112 2.69887 -0.065469 0.510274 2.16432 -0.229651 0.363932 
1.71015 -0.34865 -0.047308 1.32252 -0.3426 -0.521689 1.27683 -0.81098 0.152077 
0.765508 -0.93981 -0.202414 0.41564 -1.09218 0.067789 1.15598 0.680058 0.473372 
1.11078 0.64133 0.222795 0.728617 0.530213 0.638473 1.08713 0.66856 0.648235 
0.586287 0.60107 1.17779 0.681603 0.573517 0.9265 0.193374 0.61739 1.51621 
0.390221 0.581977 1.26937 0.25059 -0.137824 4.73998 0.217371 -0.125225 4.74938 
0.507715 -0.117429 4.62842 0.812434 -0.073347 4.35529 0.507112 -0.103814 4.6311 
0.364116 -0.113759 4.70232 0.701393 -0.113699 4.45498 0.61747 -0.114617 4.54024 
1.09123 -0.112682 4.02119 1.49761 -0.127989 3.51916 1.0516 -0.15895 4.07642 
0.876821 -0.130816 4.26676 1.47025 -0.181037 3.55779 1.27545 -0.172228 3.80376 
1.95615 -0.155806 2.95857 2.54487 -0.099809 2.26636 1.88697 -0.210959 3.01784 
1.66145 -0.194125 3.31477 2.42342 -0.1814 2.41568 2.17202 -0.201158 2.6337 
2.90336 -0.184625 2.16372 3.12971 -0.283097 2.16448 2.81625 -0.217382 2.22955 
2.63277 -0.18792 2.28758 3.0112 -0.282443 2.22891 2.97358 -0.249011 2.21708 
0.172888 -0.777625 3.39488 0.288641 -0.523834 4.01046 0.49264 -0.504748 3.92473 
0.604282 -0.368905 4.07551 0.719722 -0.31642 4.05706 0.936948 -0.35229 3.80729 
1.12674 -0.387858 3.56115 1.30583 -0.354245 3.42683 1.51325 -0.330769 3.23449 
1.73988 -0.29445 3.04251 1.9805 -0.285826 2.925 2.20539 -0.275545 2.62261 
2.43447 -0.265246 2.42898 2.66902 -0.260999 2.29076 2.8267 -0.260857 2.24409 
2.93405 -0.268483 2.24265 2.94556 -0.286201 2.26398 2.9105 -0.339661 2.24008 
2.57762 -0.379534 2.15277 2.8542 -0.333487 2.25328 2.98201 -0.310697 2.25056 
2.44855 -0.38546 2.06185 2.65392 -0.363742 2.18857 2.02296 -0.435928 1.53601 
1.56494 -0.456109 0.95223 1.98501 -0.425793 1.57141 2.23911 -0.407424 1.87871 
1.51902 -0.430735 0.93374 1.72903 -0.436716 1.21026 1.13713 -0.418983 0.46858 
0.827153 -0.409374 0.1314 1.10134 -0.386312 0.42609 1.33666 -0.417123 0.70501 
0.701596 -0.362072 0.01231 0.901561 -0.375813 0.2109 0.472688 -0.372498 -0.16432 
0.242183 -0.073597 0.330969 0.46374 -0.322527 -0.17172 0.595231 -0.338084 -0.07864 
0.164264 -0.367143 -0.28426 0.275508 -0.327263 -0.25589 2.90121 -0.305835 2.28356 
2.76706 -0.327342 2.2608 2.5976 -0.356763 2.19197 2.37848 -0.376376 2.0409 
2.14155 -0.397457 1.81357 1.92842 -0.400361 1.48987 1.72784 -0.405145 1.18737 
1.52662 -0.392252 0.91053 1.31973 -0.37705 0.657316 1.13148 -0.407143 0.670103 
0.929255 -0.36491 0.404024 0.735156 -0.294974 0.01929 0.617045 -0.33946 0.088743 
0.492729 -0.48464 0.346177 0.282761 -0.536219 0.386801 0.216388 -0.665237 1.03629 
0.179003 0.02704 1.79742 0.45619 0.07473 1.92993 0.256707 0.07337 1.97308 
0.705028 0.050308 2.00721 0.587653 0.059518 2.01234 1.07264 0.06665 1.6149 
0.901974 0.0631 1.81143 1.4918 0.03291 1.27833 1.2576 0.049471 1.48239 
1.8988 0.004441 0.92588 1.71268 0.009948 1.03195 2.3155 -0.01786 0.425258 
2.10419 -0.0028 0.628773 2.68441 -0.03051 0.215186 2.53878 -0.02244 0.274526 
2.84723 -0.0033 0.20956 2.78648 -0.024462 0.197808 0.105398 -0.057381 2.76929 
0.260778 -0.023738 2.73939 0.282378 -0.06682 2.73406 0.516137 -0.069589 2.63728 
0.578157 -0.033989 2.59821 0.675334 -0.056009 2.53621 0.757503 -0.035209 2.43959 
0.862609 -0.010161 2.31015 0.914582 -0.022921 2.25989 1.06521 -0.01852 2.07739 
1.1245 -0.004299 1.99994 1.27323 5.9e-05 1.80934 1.45763 0.010679 1.56755 
1.51672 0.016579 1.51922 1.62667 0.016479 1.33754 1.8358 0.013451 1.03859 
1.93275 0.00211 0.97461 2.11365 -0.002119 0.63835 2.35997 -0.018939 0.409636 
2.48528 -0.043009 0.28501 2.55174 -0.017799 0.284112 2.72079 -0.011179 0.215879 
2.81297 -0.004169 0.183252 2.87817 0.00856 0.196544 2.92243 0.029819 0.215216 
3.02358 0.055552 0.208826 2.71349 0.04164 0.221333 2.82328 0.018249 0.230601 
2.38782 0.105791 0.064111 2.58675 0.07225 0.179483 1.91841 0.176041 -0.4466 
2.13078 0.14608 -0.158632 1.49876 0.219891 -0.820393 1.72843 0.19088 -0.562129 
1.07136 0.282329 -1.21028 1.24546 0.246681 -1.06318 0.749416 0.224239 -1.73009 
0.926602 0.284759 -1.36561 0.461124 0.311859 -1.67636 0.598731 0.250422 -1.78054 
0.176089 0.33972 -1.43288 0.266523 0.318251 -1.70919 2.9037 0.043329 0.233387 
2.79508 0.051399 0.231852 2.84707 0.05613 0.258997 2.6032 0.07357 0.176847 
2.38609 0.09362 0.050271 2.52051 0.062811 0.18813 2.12945 0.127451 -0.184837 
1.85078 0.158201 -0.56834 1.94029 0.13624 -0.52155 1.63175 0.170971 -0.87975 
1.45653 0.172501 -1.10982 1.51152 0.157872 -1.07451 1.28989 0.174042 -1.32059 
1.07284 0.17696 -1.58651 1.11462 0.165859 -1.5419 0.885809 0.174369 -1.80706 
0.70648 0.175249 -1.99474 0.843242 0.162171 -1.85718 0.609486 0.175202 -2.08493 
0.493461 0.17268 -2.17159 0.517264 0.18922 -2.15693 0.294764 0.175162 -2.25497 
0.182018 0.18725 -2.28277 0.267015 -0.35737 -1.39293 0.211929 -0.112311 4.75102 
0.408937 -0.101808 4.68425 0.529138 -0.14871 4.50606 0.64082 -0.125759 4.53266 
0.776734 -0.14405 4.3937 0.950629 -0.169679 4.20394 1.13416 -0.202036 3.99834 
1.30487 -0.212643 3.79139 1.50167 -0.226088 3.5412 1.75132 -0.234021 3.21134 
1.98472 -0.246406 2.89752 2.19122 -0.238659 2.6375 2.43235 -0.229716 2.41342 
2.68819 -0.226596 2.2776 2.86231 -0.24648 2.23467 2.94432 -0.261223 2.23695 
2.98671 -0.283992 2.25798 2.91419 -0.314744 2.27068 2.77414 -0.338449 2.25562 
2.60361 -0.361633 2.18237 2.39768 -0.384502 2.05484 2.12135 -0.409618 1.77425 
1.89802 -0.419302 1.4568 1.70705 -0.419411 1.18598 1.50761 -0.411806 0.91395 
1.2655 -0.391208 0.61217 1.11701 -0.361572 0.42104 0.960307 -0.356052 0.25945 
0.7687 -0.332738 0.06787 0.612862 -0.310965 -0.0745 0.514801 -0.292917 -0.14758 
0.374815 -0.289679 -0.22119 0.191179 -0.285925 -0.28008 0.164297 0.020211 2.38343 
0.362368 0.030331 2.31666 0.505093 0.028141 2.24111 0.634108 -0.03042 2.3581 
0.813169 -0.04998 2.3931 0.972564 -0.0341 2.20517 1.12985 -0.024512 2.00348 
1.27836 -0.0054 1.80445 1.4375 0.007059 1.59031 1.67356 0.01664 1.26752 
1.91378 0.002329 0.90511 2.10998 -0.003722 0.638858 2.33858 -0.01259 0.409218 
2.58478 -0.01754 0.262328 2.74437 -0.016901 0.205251 2.84421 -0.005388 0.200356 
2.89574 0.016859 0.217104 2.84319 0.035839 0.231944 2.7247 0.05389 0.220456 
2.53187 0.082979 0.146348 2.32992 0.109869 0.014507 2.12266 0.136061 -0.18709 
1.93176 0.159559 -0.43268 1.68445 0.176719 -0.79561 1.43846 0.18297 -1.12976 
1.22912 0.18376 -1.39646 1.09189 0.183679 -1.57123 0.916377 0.180701 -1.7785 
0.750615 0.177639 -1.95836 0.63887 0.174169 -2.07107 0.547949 0.16267 -2.1431 
0.392315 0.169121 -2.14761 0.194826 0.17926 -2.15995 2.89482 -0.356556 2.24693 
2.70797 0.145521 1.98908 2.56205 -0.21236 1.27551 2.37593 0.27209 1.14429 

thickness 1 687 float
0.907029 0.907029 0.907029 0.907029 0.907029 0.907029 0.907029 0.907029 0.907029 
0.907029 0.907029 0.907029 0.907029 0.907029 0.907029 0.907029 0.907029 0.907029 
0.907029 0.907029 0.907029 0.907029 0.907029 0.907029 0.907029 0.907029 0.907029 
0.907029 0.907029 0.907029 0.907029 0.907029 0.907029 0.907029 0.907029 0.907029 
0.907029 0.907029 0.907029 0.907029 0.907029 0.907029 0.907029 0.907029 0.907029 
0.907029 0.907029 0.907029 0.907029 0.907029 0.907029 0.907029 0.907029 0.907029 
0.907029 0.907029 0.907029 0.907029 0.907029 0.907029 0.907029 0.907029 0.907029 
0.907029 0.907029 0.907029 0.907029 0.907029 0.907029 0.907029 0.907029 0.907029 
0.907029 0.907029 0.907029 0.907029 0.907029 0.907029 0.907029 0.907029 0.907029 
0.907029 0.907029 0.907029 0.907029 0.907029 0.907029 0.907029 0.907029 0.907029 
0.907029 0.907029 0.907029 0.907029 0.907029 0.907029 0.907029 0.907029 0.907029 
0.907029 0.907029 0.907029 0.907029 0.907029 0.907029 0.907029 0.907029 0.907029 
0.907029 0.907029 0.907029 0.907029 0.907029 0.907029 0.907029 0.907029 0.907029 
0.907029 0.907029 0.907029 0.907029 0.907029 0.907029 0.907029 0.907029 0.907029 
0.907029 0.907029 0.907029 0.907029 0.907029 0.907029 0.907029 0.907029 0.907029 
0.907029 0.907029 0.907029 0.907029 0.907029 0.907029 0.907029 0.907029 0.907029 
0.907029 0.907029 0.907029 0.907029 0.907029 0.907029 0.907029 0.907029 0.907029 
0.907029 0.907029 0.907029 0.907029 0.907029 0.907029 0.907029 0.907029 0.907029 
0.907029 0.907029 0.907029 0.907029 0.907029 0.907029 0.907029 0.907029 0.907029 
0.907029 0.907029 0.907029 0.907029 0.907029 0.661296 0.757019 0.584238 0.664862 
0.595818 0.688942 0.648652 0.66635 0.655473 0.750006 0.684792 0.767135 0.690839 
0.768429 0.694504 0.764717 0.683593 0.754695 0.704232 0.732176 0.601771 0.405239 
0.296147 0.282427 0.574135 0.432464 0.448908 0.501191 0.50943 0.530553 0.594946 
0.603551 0.597441 0.306916 0.341231 0.457621 0.622942 0.716406 0.657604 0.73231 
0.661272 0.744344 0.701588 0.709669 0.684964 0.768404 0.695418 0.765209 0.680424 
0.70045 0.691613 0.679689 0.669147 0.714162 0.662474 0.554165 0.367598 0.293585 
0.302854 0.583605 0.571457 0.57599 0.556405 0.53519 0.518544 0.510606 0.507534 
0.604654 0.242377 0.260692 0.366679 0.542796 0.517923 0.530988 0.561525 0.453527 
0.48351 0.558679 0.565679 0.567548 0.574237 0.596117 0.591608 0.593659 0.297285 
0.523077 0.325525 0.466539 0.344329 0.521481 0.325701 0.467402 0.583014 0.520849 
0.517029 0.655622 0.854936 0.779457 0.636449 0.449493 0.524752 0.611272 0.809422 
0.685283 0.608802 0.603151 0.652852 0.637685 0.743169 0.334214 0.266557 0.376264 
0.433513 0.343133 0.440593 0.491792 0.40004 0.260199 0.454579 0.332848 0.578404 
0.51359 0.524683 0.565294 0.64436 0.812318 0.843222 0.47372 0.49526 0.371531 
0.45078 0.364032 0.309105 0.45089 0.512306 0.282818 0.331044 0.793006 0.600899 
0.504023 0.45581 0.5829 0.663136 0.62608 0.838888 0.781632 0.310537 0.325363 
0.359856 0.478671 0.385446 0.538021 0.597567 0.432435 0.401511 0.483045 0.437367 
0.514332 0.478897 0.699939 0.811352 0.611566 0.65347 0.541897 0.485719 0.395336 
0.374482 0.331752 0.334744 0.494088 0.483901 0.420481 0.450647 0.450399 0.512072 
0.489627 0.550229 0.574463 0.557177 0.55252 0.610236 0.595177 0.266086 0.36253 
0.343772 0.52344 0.470247 0.681116 0.630497 0.707882 0.7265 0.518792 0.538638 
0.577122 0.630973 0.67269 0.773428 0.886486 0.867823 0.858771 0.629362 0.591683 
0.632623 0.604942 0.627294 0.582457 0.618682 0.470291 0.655348 0.698919 0.527938 
0.61649 0.390378 0.500197 0.303288 0.371294 0.846372 0.845605 0.7426 0.614735 
0.563557 0.506295 0.478067 0.459237 0.571077 0.601392 0.583544 0.657935 0.637423 
0.847917 0.750131 0.844643 0.837883 0.321103 0.389007 0.422325 0.537294 0.559494 
0.644065 0.683453 0.719434 0.714167 0.452269 0.585 0.56029 0.61525 0.577853 
0.582816 0.594598 0.60854 0.631623 0.863543 0.847335 0.690474 0.77089 0.628074 
0.666909 0.600968 0.606663 0.718186 0.685327 0.644169 0.557617 0.536924 0.427851 
0.398022 0.352257 0.587975 0.634398 0.626846 0.602076 0.562789 0.613092 0.536061 
0.589092 0.461799 0.609634 0.61194 0.567576 0.664456 0.617185 0.716739 0.694835 
0.692679 0.676419 0.748824 0.736833 0.778972 0.764632 0.79929 0.822877 0.842583 
0.801181 0.880239 0.871429 0.858025 0.79949 0.875152 0.883774 0.840404 0.857746 
0.527158 0.528613 0.535404 0.561446 0.617079 0.644579 0.639637 0.671367 0.715094 
0.748631 0.81799 0.885222 0.881639 0.880276 0.869514 0.863079 0.8568 0.807822 
0.767016 0.83518 0.831378 0.816485 0.824815 0.747605 0.632863 0.788868 0.805074 
0.698868 0.734105 0.621215 0.522323 0.658486 0.674555 0.633294 0.646219 0.565802 
0.442474 0.607429 0.625261 0.568819 0.585445 0.847583 0.842896 0.840106 0.831685 
0.822646 0.7974 0.727096 0.673161 0.631495 0.59003 0.595353 0.569434 0.543973 
0.502793 0.482261 0.46655 0.568259 0.58684 0.573043 0.60179 0.588582 0.626849 
0.619748 0.689654 0.656628 0.780432 0.710568 0.842741 0.845592 0.838451 0.844477 
0.840241 0.837777 0.585025 0.467945 0.586424 0.593206 0.586162 0.650715 0.682335 
0.567379 0.691644 0.700866 0.66564 0.71383 0.732588 0.666842 0.753012 0.797362 
0.769974 0.82936 0.839206 0.795721 0.841004 0.839166 0.822616 0.830215 0.823728 
0.788973 0.846266 0.8408 0.854498 0.852038 0.795508 0.856149 0.716363 0.733666 
0.646478 0.687912 0.659472 0.641378 0.591416 0.617945 0.595769 0.591429 0.824544 
0.83786 0.817677 0.840941 0.83897 0.792205 0.834144 0.80672 0.77218 0.760882 
0.739764 0.670164 0.723551 0.713403 0.67372 0.703968 0.688615 0.568787 0.674473 
0.633228 0.600253 0.604241 0.586822 0.434675 0.583935 0.572706 0.592694 0.644758 
0.700124 0.719132 0.695828 0.721535 0.752945 0.806207 0.84516 0.882807 0.882625 
0.883061 0.872539 0.863013 0.852238 0.841486 0.840358 0.83333 0.825286 0.810659 
0.785154 0.740689 0.703684 0.675249 0.642888 0.647765 0.635856 0.621605 0.576664 
0.54683 0.52852 0.572935 0.576205 0.579184 0.606466 0.651975 0.672596 0.663445 
0.691662 0.712284 0.746214 0.803069 0.839731 0.842054 0.843787 0.840424 0.836884 