# vtk DataFile Version 3.0
vtk output
ASCII
DATASET UNSTRUCTURED_GRID
POINTS 687 float
5 7 10 5 7 10 5 8 11.25 
5 8.25 11 5 8 10 5 7 11.25 
5 7.5 13 5 8 12.5 5 7 10.3125 
5 7 10.625 5 7 10.9375 5 7.38766 11.25 
5 7.64592 11.25 5 7.80052 11.25 5 7.90878 11.25 
5 8.01755 11.158 5 8.07322 11.0732 5 8.15798 11.0176 
5 8.25 10.1644 5 8.25 10.3763 5 8.25 10.5485 
5 8.25 10.6871 5 8.25 10.8026 5 8.25 10.9045 
5 7.74324 10 5 7.41786 10 5 7 11.6875 
5 7 12.125 5 7 12.5625 5 7.30926 13 
5 7.68405 12.9649 5 7.85355 12.8536 5 7.96489 12.684 
5 8 12.3065 5 8 12.1233 5 8 11.9567 
5 8 11.8086 5 8 11.6771 5 8 11.5591 
5 8 11.4509 5 8 11.3489 5 7.93205 11.0425 
5 7.80734 11.0245 5 7.67859 10.99 5 7.51824 10.9746 
5 7.32515 10.9611 5 8.01086 10.2002 5 8.03769 10.3933 
5 8.06323 10.5667 5 8.09469 10.7162 5 8.13242 10.8231 
5 8.14712 10.922 5 7.39469 10.6822 5 7.65901 10.6508 
5 7.8705 10.6089 5 7.93308 10.788 5 7.93412 10.9257 
5 7.7282 10.8379 5 7.82322 10.9294 5 7.54704 10.8316 
5 8.04809 10.9431 5 8.03786 10.8514 5 7.44218 10.3424 
5 7.75573 10.2431 5 7.82664 10.4299 5 7.64261 10.4744 
5 7.91347 11.1466 5 7.79547 11.136 5 7.66053 11.123 
5 7.52214 11.1159 5 7.44943 11.7066 5 7.68075 11.6735 
5 7.84745 11.667 5 7.40022 12.1904 5 7.64784 12.1371 
5 7.83294 12.1302 5 7.85639 12.4875 5 7.71852 12.5169 
5 7.5621 12.5627 5 7.35291 12.6213 5 7.84497 12.3142 
5 7.69057 12.3325 5 7.55096 12.3619 5 7.62604 12.7508 
5 7.76505 12.6851 5 7.86211 12.6189 5 7.49298 12.7907 
5 7.85524 11.8031 5 7.83896 11.9463 5 7.6677 11.8951 
5 7.73456 11.7906 5 7.8089 11.3764 5 7.85382 11.5144 
5 7.6916 11.5296 5 7.67156 11.3874 5 7.56029 11.5433 
5 7.53983 11.3935 5 7.90972 11.3537 5 7.92118 11.4397 
5 24 8 5 24 9 5 19.75 8 
5 16 9 5 16 11 5 11.25 9 
5 11.25 11 5 8.25 9.923 5 0 13 
5 0 10 5 7 13 0 8.1543 11.019 
0 8.07322 11.0732 0 8.01904 11.1543 0 8 11.25 
2.5 8.25 11 2.5 8.15432 11.019 2.5 8.07324 11.0732 
2.5 8.01903 11.1543 2.5 8 11.25 5 8.15434 11.019 
5 8.01902 11.1543 0 7.96192 12.6914 0 7.85355 12.8536 
0 7.6914 12.9619 2.5 8 12.5 2.5 7.96192 12.6914 
2.5 7.85355 12.8536 2.5 7.6914 12.9619 2.5 7.5 13 
5 7.96192 12.6914 5 7.6914 12.9619 0 24 9 
0 24 8 0 16 9 0 16 11 
0 0 10 0 0 13 0 8.25 11 
0 8 12.5 0 7.5 13 0 26 8 
7 26 8 7 24 8 7 19.75 8 
7 16 9 7 11.25 9 7 8 10 
7 0 10 7 -2 10 0 -2 10 
0 0 -11 0 0 -8 0 -2 -8 
5 -2 -8 7 -2 -8 5 0 -8 
5 0 -11 5 8 -11 5 8 -8 
7 8 -8 5 11.25 -11 5 11.25 -9 
7 11.25 -9 5 16 -11 5 16 -9 
7 16 -9 5 19.75 -11 5 19.75 -10 
7 19.75 -10 0 24 -11 0 24 -10 
5 24 -10 5 24 -11 0 26 -10 
5 26 -10 7 26 -10 0 -12 -4 
0 -12 4 0.59691 -12 -3.95521 1.23343 -12 -3.80508 
1.86684 -12 -3.53764 2.4031 -12 -3.19767 2.82877 -12 -2.82808 
3.32044 -12 -2.2304 3.73551 -12 -1.43038 3.93533 -12 -0.71638 
3.99986 -12 0.03336 3.92368 -12 0.77765 3.70276 -12 1.51312 
3.35693 -12 2.17509 2.89656 -12 2.75861 2.35395 -12 3.23403 
1.75721 -12 3.59335 1.15512 -12 3.82958 0.56093 -12 3.96047 
0 36 4 0 -10.743 4 0 -8.8877 4 
0 -6.64749 4 0 -4.45202 4 0 -0.91936 4 
0 4.14518 4 0 6.58748 4 0 9.66416 4 
0 12.0556 4 0 14.4989 4 0 17.6266 4 
0 20.3196 4 0 24.9607 4 0 29.4472 4 
0 31.7102 4 0 33.6144 4 0 35.0694 4 
0 36 -4 0.59993 36 3.95476 1.23847 36 3.80344 
1.87132 36 3.53528 2.4058 36 3.19564 2.82825 36 2.8286 
3.31559 36 2.2376 3.73171 36 1.44025 3.93289 36 0.72964 
3.99999 36 0.00729 3.93339 36 -0.72693 3.7303 36 -1.44391 
3.33354 36 -2.21076 2.85148 36 -2.80519 2.28639 36 -3.28214 
1.63682 36 -3.64977 1.11455 36 -3.84158 0.56461 36 -3.95995 
0 34.661 -4 0 32.5627 -4 0 29.9725 -4 
0 27.9548 -4 0 24.936 -4 0 20.302 -4 
0 17.5542 -4 0 14.3512 -4 0 11.9689 -4 
0 9.52824 -4 0 6.40852 -4 0 3.7104 -4 
0 -0.45165 -4 0 -4.9424 -4 0 -7.504 -4 
0 -9.50153 -4 0 -11.0253 -4 0 2.06879 -4 
0 1.24817 -4 0 0.49795 -4 0 2.22891 4 
0 0.81573 4 0 -0.2654 4 0 21.9979 -4 
0 23.2408 -4 0 24.3368 -4 0 21.9532 4 
0 23.1639 4 0 24.2218 4 0 -2.85941 -4 
0 -1.4497 -4 0 -2.71248 4 0 -1.53432 4 
0 26.5263 -4 0 25.5061 -4 0 27.2927 4 
0 25.7706 4 2.28036 11.9291 -3.28633 1.91748 7.67834 -3.51045 
1.39183 4.80584 -3.75004 3.10004 4.74612 -2.5278 3.99902 4.81728 0.08855 
3.99929 11.9788 0.07526 3.01126 4.7799 2.63293 1.3206 4.94069 3.77571 
1.85925 7.75999 3.54164 2.26005 12.0455 3.30033 4 19.1687 0.00563 
3.05144 19.2212 -2.58625 1.3639 19.1697 -3.76029 1.9216 16.2623 -3.5082 
1.88377 16.3456 3.52866 1.37297 19.2307 3.75698 3.06558 19.3026 2.56948 
0.86913 -9.0538 -3.90444 1.36253 -6.45576 -3.76079 2.03706 -9.19679 -3.44244 
3.04279 -9.69606 -2.59642 3.11128 -6.58598 -2.51395 3.7595 -9.34266 -1.36607 
3.99985 -9.72826 0.03484 3.99986 -6.60452 0.03337 1.03898 -4.23036 -3.86271 
3.0157 -3.54152 -2.62784 2.05455 -4.03413 -3.43203 3.99994 -3.50264 0.0214 
3.74655 -3.86932 -1.40121 1.00023 2.98374 -3.87292 1.99481 2.63411 -3.46709 
2.98987 2.17564 -2.65719 3.74575 2.45304 -1.40334 3.9997 2.15958 0.04896 
3.72707 -9.3715 1.45222 2.9589 -9.71773 2.69164 3.0344 -6.63176 2.60623 
1.83862 -9.28024 3.55239 0.83367 -8.38579 3.91216 1.43719 -6.66098 3.73289 
2.82548 -3.41986 2.83137 3.71431 -3.8546 1.48454 0.80231 -4.99714 3.91871 
1.77296 -4.35265 3.58561 3.70922 2.45004 1.49723 2.93365 2.16411 2.71913 
1.91758 2.60035 3.5104 0.80755 2.87316 3.91763 0.98341 21.0045 -3.87723 
2.96254 21.8143 -2.68763 1.97163 21.3626 -3.48032 4 21.8263 -0.0017 
3.72906 21.5439 -1.4471 0.84747 28.4195 -3.90919 1.34399 31.0003 -3.76745 
1.95439 28.5374 -3.49004 2.87262 27.5375 -2.78353 3.07745 30.8031 -2.55525 
3.72995 27.9379 -1.4448 3.99996 27.5711 0.01726 3.99996 30.7106 0.01826 
1.04168 33.1935 -3.86198 3.05671 33.7806 -2.58002 2.08878 33.3701 -3.4113 
3.99999 33.7855 0.01071 3.75229 33.4182 -1.38575 2.97043 21.8482 2.67891 
3.73117 21.5642 1.44167 0.98998 21.028 3.87556 1.97903 21.3942 3.47613 
3.71189 27.9005 1.4906 2.82811 27.4453 2.82874 3.04412 30.7018 2.59487 
1.93597 28.3735 3.50029 0.86823 28.146 3.90463 1.3057 30.7039 3.78089 
3.02368 33.7595 2.61866 3.74268 33.397 1.41152 0.86284 33.1639 3.90583 
2.02665 33.2848 3.44858 0.53032 -10.5458 -3.96469 1.24149 -10.7951 -3.80246 
1.85972 -10.739 -3.54139 2.44302 -10.9691 -3.16728 3.06586 -11.1071 -2.56914 
3.48459 -10.8306 -1.96409 3.7465 -10.7956 -1.40133 3.93436 -10.9762 -0.72168 
3.99993 -10.9299 0.02358 0.54517 -3.49606 -3.96268 1.86409 -2.61933 -3.53909 
1.12497 -2.64827 -3.83855 2.9571 -2.35459 -2.69361 2.44919 -2.36751 -3.16251 
3.72692 -2.41852 -1.45261 3.39583 -2.27834 -2.11384 3.99998 -2.31918 0.01383 
3.93224 -2.2631 -0.73315 0.48601 2.25066 -3.97036 1.03264 1.61027 -3.86441 
1.64176 1.01027 -3.64755 2.37715 1.13073 -3.21701 2.91683 0.91806 -2.73717 
3.38248 1.09831 -2.13514 3.72047 0.97203 -1.46904 3.93264 1.103 -0.73102 
3.99992 0.92061 0.02526 3.92483 -10.9867 0.77183 3.71071 -10.8422 1.49354 
3.3623 -10.9829 2.16677 2.9046 -10.9215 2.75014 2.34975 -10.9585 3.23708 
1.73632 -10.8351 3.6035 1.08728 -11.0164 3.84939 0.76552 -9.85185 3.92606 
3.70832 -2.40724 1.49945 3.9251 -2.25836 0.77044 2.9009 -2.24119 2.75405 
3.3515 -2.23326 2.18344 2.02728 -2.75573 3.44821 2.48468 -2.05245 3.1347 
0.75188 -3.60736 3.9287 1.14269 -2.47261 3.83331 3.92189 1.10123 0.78663 
3.70058 0.96959 1.51845 3.351 1.09403 2.18422 2.88114 0.91095 2.77471 
2.33539 1.11346 3.24745 1.59742 0.95017 3.66719 0.99331 1.51146 3.87471 
0.55744 1.91642 3.96097 0.49282 21.7568 -3.96953 1.62708 22.9996 -3.65412 
1.03614 22.3695 -3.86347 2.91706 23.0854 -2.73692 2.36484 22.8705 -3.22607 
3.71028 23.0214 -1.4946 3.37648 22.8891 -2.14462 3.9999 23.0778 -0.02841 
3.92467 22.8842 -0.77261 0.51979 26.9399 -3.96608 1.2839 26.7399 -3.78835 
2.11377 26.9015 -3.39588 2.52051 26.1316 -3.10597 2.93463 26.3152 -2.71807 
3.36843 26.2864 -2.15724 3.71832 26.4622 -1.47449 3.92922 26.2994 -0.74917 
3.99998 26.3685 0.01184 0.55062 33.9394 -3.96192 1.97271 35.0239 -3.47972 
1.14169 34.811 -3.83361 3.08146 35.1197 -2.55042 2.58816 34.8824 -3.04982 
3.73846 34.839 -1.42265 3.48539 34.8596 -1.96266 3.99999 34.9623 0.00668 
3.93189 35.0007 -0.73504 3.72154 23.0373 1.46633 3.93176 22.8918 0.73573 
2.91935 23.0975 2.73448 3.38141 22.9046 2.13684 1.64466 23.007 3.64624 
2.37652 22.8746 3.21747 0.49487 21.7358 3.96927 1.0407 22.3613 3.86225 
3.92575 26.2931 0.76713 3.70601 26.448 1.50515 3.34197 26.263 2.198 
2.88063 26.2536 2.77524 2.47122 26.0537 3.14532 2.08148 26.8047 3.41576 
1.2917 26.6842 3.7857 0.68296 26.9319 3.94126 3.73438 34.8292 1.43333 
3.92972 34.9963 0.74652 3.0571 35.1329 2.57956 3.47547 34.8531 1.98018 
1.86379 34.7857 3.53925 2.44652 34.9947 3.16457 0.53235 34.5863 3.96442 
1.24874 34.8315 3.80009 0.52811 -1.66823 -3.96498 0.45204 -0.84639 -3.97438 
1.07292 -1.10687 -3.85342 1.78369 -1.62004 -3.58029 1.06326 -0.32748 -3.8561 
0.75907 -0.48267 -3.92732 1.56772 -0.81885 -3.67998 1.35017 -0.49395 -3.76524 
2.33715 -1.17613 -3.24619 2.91025 -1.38515 -2.74416 2.25846 -0.53158 -3.30142 
1.95131 -0.75918 -3.49176 2.87334 -0.66995 -2.78279 2.61278 -0.56887 -3.02876 
3.35142 -1.10734 -2.18357 3.71158 -1.36738 -1.49136 3.31205 -0.49745 -2.24284 
3.09024 -0.6604 -2.53977 3.69991 -0.6572 -1.52008 3.54448 -0.54599 -1.85383 
3.92279 -1.09408 -0.78213 4 -1.34705 -0.00312 3.9109 -0.48582 -0.83958 
3.81268 -0.64663 -1.20974 3.99995 -0.64705 -0.01926 3.98089 -0.53487 -0.39052 
0.35215 1.2147 -3.98447 0.60895 0.58968 -3.95338 1.09375 0.62285 -3.84756 
1.36124 0.41025 -3.76125 1.6086 0.31642 -3.6623 2.01162 0.35229 -3.45737 
2.34331 0.45551 -3.24174 2.63225 0.38019 -3.01185 2.89599 0.38569 -2.75921 
3.15088 0.35872 -2.46413 3.37306 0.45257 -2.15 3.5589 0.39074 -1.82599 
3.71344 0.41132 -1.48674 3.84224 0.37865 -1.1123 3.93218 0.46215 -0.73344 
3.98386 0.3871 -0.35896 3.99996 0.39629 0.01684 3.92995 -1.09117 0.7453 
3.70953 -1.35634 1.49646 3.93889 -0.48438 0.69651 3.98788 -0.64025 0.3112 
3.71222 -0.65148 1.48977 3.8347 -0.53622 1.13801 3.36409 -1.08533 2.16399 
2.90685 -1.3059 2.74777 3.38661 -0.48683 2.12859 3.57735 -0.64249 1.78958 
2.88925 -0.63887 2.76626 3.13069 -0.53105 2.48974 2.35752 -1.09709 3.23142 
1.80695 -1.5696 3.5686 2.29815 -0.43655 3.27391 2.65143 -0.62659 2.99499 
[...]
POINT_DATA 687
FIELD FieldData 2
displacement 3 687 float
0 0 0 0 0 -4.2 0 0 -4.2 
0 0 -4.2 0 0 -4.2 0 0 -4.2 
0 0 -4.2 0 0 -4.2 0 0 -4.2 
0 0 -4.2 0 0 -4.2 0 0 -4.2 
0 0 -4.2 0 0 -4.2 0 0 -4.2 
0 0 -4.2 0 0 -4.2 0 0 -4.2 
0 0 -4.2 0 0 -4.2 0 0 -4.2 
0 0 -4.2 0 0 -4.2 0 0 -4.2 
0 0 -4.2 0 0 -4.2 0 0 -4.2 
0 0 -4.2 0 0 -4.2 0 0 -4.2 
0 0 -4.2 0 0 -4.2 0 0 -4.2 
0 0 -4.2 0 0 -4.2 0 0 -4.2 
0 0 -4.2 0 0 -4.2 0 0 -4.2 
0 0 -4.2 0 0 -4.2 0 0 -4.2 
0 0 -4.2 0 0 -4.2 0 0 -4.2 
0 0 -4.2 0 0 -4.2 0 0 -4.2 
0 0 -4.2 0 0 -4.2 0 0 -4.2 
0 0 -4.2 0 0 -4.2 0 0 -4.2 
0 0 -4.2 0 0 -4.2 0 0 -4.2 
0 0 -4.2 0 0 -4.2 0 0 -4.2 
0 0 -4.2 0 0 -4.2 0 0 -4.2 
0 0 -4.2 0 0 -4.2 0 0 -4.2 
0 0 -4.2 0 0 -4.2 0 0 -4.2 
0 0 -4.2 0 0 -4.2 0 0 -4.2 
0 0 -4.2 0 0 -4.2 0 0 -4.2 
0 0 -4.2 0 0 -4.2 0 0 -4.2 
0 0 -4.2 0 0 -4.2 0 0 -4.2 
0 0 -4.2 0 0 -4.2 0 0 -4.2 
0 0 -4.2 0 0 -4.2 0 0 -4.2 
0 0 -4.2 0 0 -4.2 0 0 -4.2 
0 0 -4.2 0 0 -4.2 0 0 -4.2 
0 0 -4.2 0 0 -4.2 0 0 -4.2 
0 0 -4.2 0 0 -4.2 0 0 -4.2 
0 0 -4.2 0 0 -4.2 0 0 -4.2 
0 0 -4.2 0 0 -4.2 0 0 -4.2 
0 0 -4.2 0 0 -4.2 0 0 -4.2 
0 0 -4.2 0 0 -4.2 0 0 -4.2 
0 0 -4.2 0 0 -4.2 0 0 -4.2 
0 0 -4.2 0 0 -4.2 0 0 -4.2 
0 0 -4.2 0 0 -4.2 0 0 -4.2 
0 0 -4.2 0 0 -4.2 0 0 -4.2 
0 0 -4.2 0 0 -4.2 0 0 -4.2 
0 0 -4.2 0 0 -4.2 0 0 -4.2 
0 0 -4.2 0 0 -4.2 0 0 -4.2 
0 0 -4.2 0 0 -4.2 0 0 -4.2 
0 0 -4.2 0 0 -4.2 0 0 -4.2 
0 0 -4.2 0 0 -4.2 0 0 -4.2 
0 0 -4.2 0 0 -4.2 0 0 -4.2 
0 0 -4.2 0 0 -4.2 0 0 -4.2 
0 0 -4.2 0 0 -4.2 0 0 -4.2 
0 0 6.15 0 0 6.15 0 0 6.15 
0 0 6.15 0 0 6.15 0 0 6.15 
0 0 6.15 0 0 6.15 0 0 6.15 
0 0 6.15 0 0 6.15 0 0 6.15 
0 0 6.15 0 0 6.15 0 0 6.15 
0 0 6.15 0 0 6.15 0 0 6.15 
0 0 6.15 0 0 6.15 0 0 6.15 
0 0 6.15 0 0 6.15 0 0 6.15 
0 0 6.15 0 0 6.15 0 0 0 
0 0 0 0 0 0 0 0 0 
0 0 0 0 0 0 0 0 0 
0 0 0 0 0 0 0 0 0 
0 0 0 0 0 0 0 0 0 
0 0 0 0 0 0 0 0 0 
0 0 0 0 0 0 0 0 0 
0 0 0 0 -0.4316 1.0389 0 -0.654362 1.96556 
0 -0.671089 2.66973 0 -0.531496 2.84295 0 -0.373079 1.8 
0 -0.19181 3.74371 0 0.148659 3.76921 0 0.30645 2.8 
0 0.43127 2.70778 0 0.4929 2.30606 0 0.173941 0.8 
0 0.227001 0.8 0 0.18755 -0.2 0 -0.013161 1.5486 
0 0.083519 1.56972 0 0.1431 1.18779 0 0.09536 0.590372 
0 0 0 0 0 0 0 0 0 
0 0 0 0 0 0 0 0 0 
0 0 0 0 0 0 0 0 0 
0 0 0 0 0 0 0 0 0 
0 0 0 0 0 0 0 0 0 
0 0 0 0 0 0 0 0 0 
0 0.118431 -0.832136 0 0.079048 -1.5156 0 -0.067641 -1.63954 
0 -0.19914 -1.23922 0 -0.056469 0.15 -0 -0.214772 -0.85 
0 -0.360969 -0.85 0 -0.48246 -0.85 -0 -0.50653 -0.85 
0 -0.565995 -0.85 0 -0.678985 -0.727624 0 -0.706583 -0.10108 
0 -0.120528 2.15 0 0.493794 -0.153577 0 0.39112 -0.73981 
0 0.216778 -0.7472 0 0.08251 -0.417058 0 -0.639195 0.59356 
0 -0.52964 1.0797 0 -0.353812 1.60029 0 -0.420914 3.2363 
0 -0.419117 2.39317 0 -0.306666 1.8 0 -0.058481 -0.85 
0 0.036699 -0.564646 0 -0.081558 0.15 0 0.303931 0.79465 
0 0.29049 0.345243 -0 0.172491 -0.2 0 0.330328 1.04162 
0 -0.137782 2.15 0 -0.374291 2.53962 0 -0.410332 1.8 
0 -0.183139 -0.52006 0 -0.03339 0.15 0 -0.082482 0.979626 
0 0.20265 -0.2 1.65066 -0.48493 -0.960789 1.30117 -0.591965 -0.607377 
0.871357 -0.642385 -0.226927 1.89996 -0.387842 0.61297 2.68639 -0.178028 1.84394 
2.76542 -0.08562 0.858405 1.98874 -0.079006 3.22015 0.834551 -0.073463 3.72781 
1.2457 0.219787 3.37665 1.62028 0.39123 2.6633 2.45081 -0.024099 0.040474 
1.78426 -0.18809 -1.01247 0.714987 -0.241508 -1.08971 1.10541 -0.36788 -1.1332 
1.03878 0.25339 1.27134 0.676001 0.22443 1.04302 1.76134 0.178099 1.04076 
0.280693 0.247564 -0.769206 0.641459 0.375971 -0.52732 0.669234 0.167255 -0.667843 
0.881807 0.002167 -0.393389 1.53397 0.050026 -0.15704 1.28624 -0.144396 -0.035548 
1.22487 -0.30424 0.366871 2.05467 -0.41279 0.962293 0.463546 0.413079 0.19957 
1.50631 -0.004972 0.575102 0.970988 0.260979 0.249468 2.14174 -0.410964 1.5102 
2.01145 -0.233356 0.865545 0.549218 -0.649657 0.21287 1.11795 -0.515647 0.397941 
1.69458 -0.350318 0.794113 2.26581 -0.26977 1.25365 2.39788 -0.24428 1.91823 
1.31403 -0.458892 0.927565 0.921925 -0.52322 1.19926 1.54736 -0.653746 2.13075 
0.655633 -0.613971 1.70551 0.336135 -0.663227 2.12206 0.703308 -0.672385 2.52835 
1.44027 -0.554805 2.55772 2.00493 -0.552328 2.06653 0.39789 -0.584527 2.81375 
0.899049 -0.573365 2.78013 2.25425 -0.226674 2.58191 1.67066 -0.282525 2.99882 
1.07854 -0.313801 3.33265 0.444814 -0.339153 3.44722 0.470323 -0.1327 -0.97277 
1.55367 -0.074471 -0.933541 0.995075 -0.101321 -1.08671 2.24173 0.031931 -0.0385 
2.10188 -0.05184 -0.599097 0.392159 -0.14904 -1.38585 0.630683 0.0322 -1.60547 
0.946149 -0.04036 -1.36003 1.42986 0.062309 -1.03144 1.51102 0.17663 -1.17509 
1.98255 0.21043 -0.649455 2.11564 0.246001 -0.05024 2.02987 0.305331 -0.036253 
0.341071 0.122089 -1.28517 0.888987 0.20277 -0.780054 0.681821 0.151981 -1.15329 
1.19126 0.25697 -0.017996 1.26742 0.243011 -0.491223 1.55195 0.177849 0.850826 
2.105 0.09668 0.527904 0.45523 0.25815 0.92444 0.979976 0.236549 1.01354 
1.9881 0.252889 0.560373 1.42616 0.15164 0.949954 1.52094 0.210729 1.1215 
0.955647 0.055849 1.27352 0.407993 -0.034469 1.27071 0.633737 0.07798 1.56687 
0.896329 0.211338 0.764197 1.28006 0.249241 0.454152 0.291 0.139828 1.29351 
0.688523 0.167702 1.15023 0.097956 0.11721 -0.552934 0.206904 0.09476 -0.488028 
0.313086 0.05608 -0.432632 0.376484 0.03007 -0.352104 0.416532 -0.02645 -0.225959 
0.623617 -0.05999 -0.190318 0.676209 -0.11501 -0.085814 0.67436 -0.1346 0.016812 
0.675325 -0.205 0.154957 0.228709 0.382613 0.629025 0.813035 0.141941 1.00264 
0.461994 0.224519 1.09675 1.45454 -0.078458 0.94042 1.13209 0.007517 0.973835 
1.98431 -0.246424 1.15765 1.77886 -0.170846 1.0057 2.16735 -0.387602 1.67389 
2.1494 -0.329053 1.41651 0.248003 -0.642139 0.502076 0.500809 -0.550842 0.799315 
0.774119 -0.4074 1.06955 1.2172 -0.344765 0.941808 1.55623 -0.279852 1.03015 
1.9032 -0.264575 1.11636 2.12389 -0.258156 1.34396 2.29167 -0.26062 1.61021 
2.31636 -0.278836 1.90482 0.691158 -0.22663 0.27553 0.687239 -0.30012 0.446145 
0.599823 -0.30054 0.538747 0.505426 -0.34693 0.640661 0.425515 -0.35147 0.741018 
0.320158 -0.39473 0.847669 0.173529 -0.35765 0.81828 0.235401 -0.55491 1.49781 
1.9732 -0.485733 2.18543 2.13982 -0.44653 1.95817 1.4571 -0.492691 2.49776 
1.75737 -0.504029 2.40996 0.964271 -0.471106 2.58763 1.20828 -0.468596 2.51259 
0.35882 -0.467922 2.73479 0.511688 -0.397926 2.51696 2.27802 -0.281545 2.20836 
2.10276 -0.304589 2.46268 1.87574 -0.311235 2.68689 1.53735 -0.338328 2.76178 
1.20394 -0.349199 2.82952 0.762793 -0.388373 2.66014 0.485634 -0.421446 2.8988 
0.277416 -0.418434 3.06319 0.22702 -0.079701 -0.88047 0.745101 -0.010889 -0.77541 
0.472891 -0.026989 -0.870757 1.47807 -0.033409 -0.81744 1.15219 -0.036612 -0.870301 
2.00268 0.00436 -0.555505 1.78985 -0.026729 -0.741705 2.20298 0.068331 -0.063364 
2.1639 0.026979 -0.327112 0.215287 -0.199242 -0.78819 0.549977 -0.14308 -0.787806 
0.970359 -0.050011 -0.915587 1.20101 0.014641 -0.744788 1.44542 0.054411 -0.791112 
1.73709 0.10973 -0.734484 1.94505 0.15435 -0.556889 2.10679 0.187399 -0.323066 
2.13032 0.20541 -0.054953 0.144894 0.114208 -1.0773 0.28754 0.118129 -0.548478 
0.193994 0.11221 -0.736981 0.430283 0.128818 -0.37537 0.44607 0.134411 -0.553086 
0.662346 0.176792 -0.272887 0.626707 0.158081 -0.3737 0.647247 0.178001 -0.009502 
0.658392 0.156131 -0.135879 2.01482 0.122119 0.442906 2.17232 0.089001 0.210273 
1.48044 0.17276 0.708435 1.797 0.14337 0.637706 0.746222 0.24807 0.620945 
1.15474 0.205519 0.750623 0.219942 0.289339 0.83073 0.466193 0.292459 0.743788 
2.11182 0.21929 0.211577 1.94951 0.21484 0.457336 1.73644 0.19986 0.643595 
1.42884 0.16749 0.705942 1.18589 0.150461 0.659489 0.970408 0.0814 0.840776 
0.567948 0.01709 0.74973 0.293331 -0.02454 0.792174 0.671767 0.18029 0.254186 
0.662963 0.157829 0.117226 0.430228 0.132714 0.358742 0.636581 0.161308 0.357858 
0.330674 0.14085 0.64302 0.399493 0.126149 0.521338 0.107135 0.130051 0.817766 
0.22463 0.115169 0.704597 0.25059 -0.137824 2.11498 0.217371 -0.125225 2.12438 
0.507715 -0.117429 2.00342 0.812434 -0.073347 1.73029 0.507112 -0.103814 2.0061 
0.364116 -0.113759 2.07732 0.701393 -0.113699 1.82998 0.61747 -0.114617 1.91524 
1.09341 -0.112143 1.40625 1.46859 -0.140444 1.1408 1.05278 -0.158628 1.47258 
0.876821 -0.130816 1.64176 1.44776 -0.17799 1.23659 1.27765 -0.168423 1.31149 
1.77776 -0.201246 1.18802 2.04156 -0.255066 1.28671 1.76457 -0.213475 1.22117 
1.60249 -0.191736 1.20791 2.03649 -0.253079 1.34702 1.93323 -0.232927 1.27667 
2.1847 -0.304358 1.53181 2.24025 -0.361467 1.77503 2.19219 -0.287761 1.5557 
2.11974 -0.270626 1.43289 2.24444 -0.334129 1.8241 2.24148 -0.311512 1.70345 
0.167713 -0.522918 1.09345 0.281479 -0.365719 1.54219 0.490299 -0.352689 1.46219 
0.609272 -0.277568 1.5558 0.725814 -0.253876 1.51597 0.939803 -0.266027 1.32543 
1.14391 -0.267125 1.20187 1.32735 -0.246114 1.16465 1.5057 -0.242444 1.1409 
1.68917 -0.237912 1.15112 1.84786 -0.244184 1.19241 1.9814 -0.245602 1.27037 
2.08671 -0.254951 1.36578 2.18264 -0.26255 1.48422 2.24485 -0.272792 1.61542 
2.27994 -0.284315 1.75084 2.28461 -0.296408 1.88823 2.18118 -0.39124 2.05662 
2.02938 -0.437586 2.28186 2.20296 -0.35806 2.08323 2.2363 -0.349469 1.94092 
2.03388 -0.394977 2.32138 2.12852 -0.377361 2.22576 1.78559 -0.435746 2.45728 
1.48538 -0.44673 2.52366 1.81308 -0.398975 2.48871 1.94124 -0.402418 2.40354 
1.47488 -0.40824 2.538 1.64046 -0.404771 2.53865 1.13576 -0.41352 2.43735 
0.827153 -0.409374 2.2314 1.10613 -0.380835 2.44482 1.32253 -0.402177 2.51829 
0.701596 -0.362072 2.11231 0.906303 -0.37577 2.3005 0.472688 -0.372498 1.93568 
0.217559 -0.375618 2.05492 0.46374 -0.322527 1.92828 0.595231 -0.338084 2.02136 
0.164264 -0.367143 1.81574 0.275508 -0.327263 1.84411 2.27117 -0.307385 2.03411 
2.22796 -0.313721 2.17645 2.16062 -0.325765 2.30153 2.06641 -0.334818 2.41356 
1.95138 -0.343741 2.51509 1.81523 -0.346787 2.59942 1.66241 -0.355821 2.64277 
1.49502 -0.359239 2.65806 1.31484 -0.358659 2.64162 1.13445 -0.35274 2.6077 
0.934183 -0.343714 2.45681 0.735156 -0.294974 2.11929 0.614236 -0.323644 2.16992 
0.485588 -0.371862 2.30516 0.276734 -0.392005 2.30742 0.207098 -0.430657 2.73437 
0.188568 -0.00173 -0.73207 0.477441 0.012572 -0.561785 0.268029 0.02224 -0.538602 
0.725061 -0.009022 -0.498728 0.606166 -0.00013 -0.495805 1.1109 -0.02548 -0.714087 
0.928654 -0.01948 -0.628164 1.47873 -0.014931 -0.741691 1.28893 -0.02488 -0.738135 
1.76242 -0.0021 -0.694316 1.64596 -0.0112 -0.734603 1.98359 0.027689 -0.539156 
1.88509 0.01289 -0.625539 2.13648 0.054218 -0.319966 2.07823 0.04327 -0.432613 
2.18832 0.08938 -0.085767 2.17394 0.067259 -0.212908 0.105398 -0.057381 0.14429 
0.260778 -0.023738 0.11439 0.282378 -0.06682 0.10906 0.516137 -0.069589 0.01228 
0.578157 -0.033989 -0.02679 0.675334 -0.056009 -0.08879 0.757503 -0.035209 -0.18541 
0.862609 -0.010161 -0.31485 0.914582 -0.022921 -0.36511 1.0688 -0.018209 -0.50521 
1.12431 -0.003459 -0.552569 1.26868 -0.0056 -0.627701 1.42272 0.011228 -0.673067 
1.45684 0.033989 -0.713365 1.55609 0.023069 -0.686818 1.70309 0.031311 -0.670119 
1.72975 0.06151 -0.668278 1.86541 0.05352 -0.606995 1.9675 0.076371 -0.528015 
1.98214 0.112471 -0.543709 2.04593 0.09009 -0.447294 2.11386 0.097311 -0.336912 
2.12064 0.130391 -0.322607 2.16859 0.116569 -0.18807 2.1768 0.134969 -0.061419 
2.18767 0.16798 -0.064357 2.14479 0.11059 0.197966 2.18213 0.103001 0.072813 
2.01044 0.13549 0.405808 2.09612 0.119539 0.301631 1.76979 0.151291 0.586532 
1.89395 0.14361 0.513879 1.48156 0.168881 0.635486 1.65228 0.158109 0.627568 
1.11232 0.193449 0.605312 1.27924 0.17909 0.626005 0.754473 0.199339 0.313044 
0.954632 0.205249 0.539475 0.481531 0.254699 0.326832 0.613075 0.212261 0.248996 
0.18808 0.30454 0.579602 0.27684 0.272291 0.315926 2.17144 0.144079 0.046058 
2.13961 0.14604 0.168365 2.13277 0.1726 0.187333 2.0703 0.156811 0.311354 
1.97594 0.165581 0.4158 1.99306 0.18939 0.431453 1.86848 0.165581 0.500551 
1.70875 0.166861 0.56732 1.73081 0.17848 0.570225 1.55382 0.1705 0.590323 
1.41759 0.17055 0.581484 1.44942 0.172141 0.626976 1.27964 0.17021 0.546824 
1.07755 0.17557 0.449672 1.11432 0.165399 0.476006 0.885809 0.174369 0.29294 
0.70648 0.175249 0.10526 0.843242 0.162171 0.24282 0.609486 0.175202 0.01507 
0.493461 0.17268 -0.07159 0.517264 0.18922 -0.05693 0.294764 0.175162 -0.15497 
0.182018 0.18725 -0.18277 0.233158 0.097679 0.218264 0.211929 -0.112311 2.12602 
0.408937 -0.101808 2.05925 0.529138 -0.14871 1.88106 0.64082 -0.125759 1.90766 
0.776734 -0.14405 1.7687 0.950629 -0.169679 1.57894 1.13416 -0.202036 1.37334 
1.30011 -0.204727 1.27358 1.4836 -0.206941 1.21005 1.67726 -0.215446 1.20285 
1.84379 -0.229921 1.22554 1.95612 -0.240429 1.28512 2.07073 -0.252609 1.3667 
2.16417 -0.271256 1.49122 2.23429 -0.282884 1.61978 2.25735 -0.298407 1.73502 
2.27169 -0.314459 1.86479 2.24261 -0.333851 2.01888 2.20615 -0.338041 2.1632 
2.13741 -0.351461 2.26686 2.05326 -0.364009 2.37295 1.91149 -0.376974 2.47106 
1.78266 -0.372795 2.55681 1.64025 -0.379121 2.58347 1.48169 -0.381676 2.59375 
1.26557 -0.377759 2.54729 1.11701 -0.361572 2.52104 0.960307 -0.356052 2.35945 
0.7687 -0.332738 2.16787 0.612862 -0.310965 2.0255 0.514801 -0.292917 1.95242 
0.374815 -0.289679 1.87881 0.191179 -0.285925 1.81992 0.169608 -0.012329 -0.18487 
0.366009 -0.006128 -0.248105 0.510495 -0.007679 -0.323704 0.634108 -0.03042 -0.266901 
0.813169 -0.04998 -0.2319 0.972564 -0.0341 -0.41983 1.13092 -0.02561 -0.61376 
1.27411 -0.015061 -0.667181 1.41604 -0.00515 -0.694652 1.59818 0.00564 -0.705469 
1.76901 0.01623 -0.670159 1.87507 0.033279 -0.609611 1.98431 0.05048 -0.531797 
2.07718 0.071911 -0.412357 2.14342 0.077351 -0.299504 2.17683 0.09301 -0.167346 
2.18778 0.115398 -0.042861 2.16773 0.127668 0.091247 2.13499 0.12895 0.212919 
2.0614 0.13847 0.333587 1.97433 0.151129 0.430969 1.87611 0.154702 0.503024 
1.77468 0.156759 0.563085 1.60223 0.164819 0.603016 1.41005 0.169991 0.595595 
1.22572 0.175249 0.548938 1.09287 0.182699 0.520763 0.916377 0.180701 0.3215 
0.750615 0.177639 0.14164 0.63887 0.174169 0.02893 0.547949 0.16267 -0.0431 
0.392315 0.169121 -0.047613 0.194826 0.17926 -0.059952 2.5982 -0.318829 0.464631 
2.57497 0.061892 2.30453 2.35489 -0.22691 -0.425379 2.32804 0.09659 0.988352 

thickness 1 687 float
0.907029 0.907029 0.907029 0.907029 0.907029 0.907029 0.907029 0.907029 0.907029 
0.907029 0.907029 0.907029 0.907029 0.907029 0.907029 0.907029 0.907029 0.907029 
0.907029 0.907029 0.907029 0.907029 0.907029 0.907029 0.907029 0.907029 0.907029 
0.907029 0.907029 0.907029 0.907029 0.907029 0.907029 0.907029 0.907029 0.907029 
0.907029 0.907029 0.907029 0.907029 0.907029 0.907029 0.907029 0.907029 0.907029 
0.907029 0.907029 0.907029 0.907029 0.907029 0.907029 0.907029 0.907029 0.907029 
0.907029 0.907029 0.907029 0.907029 0.907029 0.907029 0.907029 0.907029 0.907029 
0.907029 0.907029 0.907029 0.907029 0.907029 0.907029 0.907029 0.907029 0.907029 
0.907029 0.907029 0.907029 0.907029 0.907029 0.907029 0.907029 0.907029 0.907029 
0.907029 0.907029 0.907029 0.907029 0.907029 0.907029 0.907029 0.907029 0.907029 
0.907029 0.907029 0.907029 0.907029 0.907029 0.907029 0.907029 0.907029 0.907029 
0.907029 0.907029 0.907029 0.907029 0.907029 0.907029 0.907029 0.907029 0.907029 
0.907029 0.907029 0.907029 0.907029 0.907029 0.907029 0.907029 0.907029 0.907029 
0.907029 0.907029 0.907029 0.907029 0.907029 0.907029 0.907029 0.907029 0.907029 
0.907029 0.907029 0.907029 0.907029 0.907029 0.907029 0.907029 0.907029 0.907029 
0.907029 0.907029 0.907029 0.907029 0.907029 0.907029 0.907029 0.907029 0.907029 
0.907029 0.907029 0.907029 0.907029 0.907029 0.907029 0.907029 0.907029 0.907029 
0.907029 0.907029 0.907029 0.907029 0.907029 0.907029 0.907029 0.907029 0.907029 
0.907029 0.907029 0.907029 0.907029 0.907029 0.907029 0.907029 0.907029 0.907029 
0.907029 0.907029 0.907029 0.907029 0.907029 0.778185 0.860556 0.734861 0.77942 
0.740765 0.79568 0.772792 0.786847 0.779687 0.839643 0.800332 0.857302 0.807372 
0.863284 0.813304 0.865308 0.807261 0.858247 0.820782 0.826023 0.759126 0.652675 
0.589986 0.563057 0.574135 0.499666 0.495067 0.514115 0.519462 0.549745 0.598385 
0.603568 0.597441 0.58563 0.615006 0.676727 0.761853 0.82281 0.776133 0.82446 
0.777447 0.83202 0.802809 0.808024 0.789809 0.8435 0.796567 0.841994 0.788178 
0.803846 0.799655 0.792928 0.787729 0.818309 0.784176 0.72855 0.631273 0.580179 
0.573954 0.583605 0.571457 0.571075 0.553854 0.53575 0.529891 0.533902 0.558641 
0.607396 0.587169 0.603872 0.653522 0.723823 0.578229 0.590501 0.603623 0.520571 
0.53653 0.565777 0.570219 0.574913 0.579064 0.598046 0.596782 0.595818 0.591017 
0.597848 0.561025 0.569338 0.56557 0.576589 0.584419 0.58833 0.550592 0.539213 
0.552619 0.580397 0.577355 0.565134 0.536592 0.502909 0.513013 0.544864 0.61941 
0.59714 0.578587 0.573053 0.598954 0.612976 0.626273 0.638349 0.601388 0.653005 
0.679591 0.626435 0.677601 0.701678 0.633228 0.596124 0.656286 0.625082 0.63647 
0.644604 0.572463 0.599359 0.633476 0.624502 0.614791 0.689542 0.701106 0.618121 
0.675858 0.631891 0.594509 0.608625 0.618947 0.569178 0.580532 0.589966 0.57959 
0.542656 0.517108 0.578014 0.619994 0.594712 0.638654 0.627508 0.579415 0.602305 
0.598635 0.631018 0.62097 0.629874 0.635688 0.633114 0.651012 0.688643 0.665281 
0.700845 0.682232 0.643406 0.640531 0.607015 0.622606 0.633636 0.638789 0.625216 
0.607622 0.592056 0.604561 0.69268 0.683786 0.657384 0.669913 0.681061 0.707273 
0.696905 0.725582 0.73966 0.729847 0.726504 0.759419 0.750536 0.595129 0.641999 
0.616507 0.693374 0.689659 0.66734 0.682805 0.646951 0.654818 0.578166 0.598145 
0.641079 0.664007 0.679341 0.662723 0.655688 0.640493 0.633903 0.772937 0.747996 
0.775977 0.757186 0.77501 0.743209 0.76817 0.684864 0.628991 0.634814 0.627212 
0.625237 0.599344 0.628112 0.564198 0.578538 0.620102 0.616851 0.610183 0.615869 
0.602749 0.57133 0.540145 0.526525 0.572766 0.60676 0.583482 0.643613 0.629181 
0.643558 0.640353 0.647664 0.642559 0.574141 0.601023 0.628194 0.667519 0.661334 
0.651745 0.646607 0.643906 0.647253 0.678517 0.739039 0.728644 0.755595 0.734263 
0.733671 0.742168 0.748008 0.76268 0.654197 0.648347 0.664601 0.656288 0.640101 
0.655319 0.600903 0.609003 0.646467 0.651118 0.658754 0.67016 0.67664 0.637359 
0.614814 0.600243 0.735431 0.763707 0.760473 0.744576 0.724091 0.753305 0.711539 
0.740651 0.602676 0.609634 0.652487 0.698601 0.664456 0.617185 0.716739 0.694835 
0.740673 0.718903 0.74061 0.735521 0.727599 0.737346 0.702329 0.675933 0.704084 
0.716624 0.678486 0.688626 0.659864 0.645585 0.660184 0.668878 0.64541 0.650755 
0.587749 0.589225 0.611257 0.636813 0.670347 0.691915 0.694182 0.705679 0.701807 
0.6938 0.682305 0.675253 0.667538 0.657726 0.649848 0.644277 0.639728 0.636554 
0.631074 0.636266 0.640453 0.631975 0.632387 0.632607 0.635215 0.632821 0.631785 
0.63918 0.63496 0.642539 0.623127 0.642871 0.641858 0.631276 0.640697 0.602517 
0.572016 0.607429 0.625261 0.58061 0.585445 0.633374 0.62844 0.626015 0.625438 
0.623807 0.623264 0.626017 0.629797 0.630082 0.628835 0.624318 0.59997 0.582921 
0.559053 0.539258 0.53085 0.574038 0.593725 0.57983 0.618285 0.604754 0.649872 
0.644053 0.658968 0.659404 0.650534 0.652062 0.649648 0.650285 0.647098 0.647712 
0.649493 0.647106 0.585025 0.581041 0.588642 0.600579 0.626544 0.650715 0.682335 
0.666786 0.687889 0.688433 0.687898 0.681382 0.6771 0.672728 0.669849 0.663468 
0.663027 0.657426 0.654184 0.651566 0.65099 0.65036 0.64893 0.649295 0.64984 
0.647758 0.651991 0.650421 0.658588 0.653526 0.664796 0.661963 0.676346 0.667873 
0.673814 0.678519 0.671134 0.668794 0.609287 0.643569 0.598394 0.600005 0.650544 
0.653478 0.651864 0.656682 0.661438 0.657693 0.666443 0.674378 0.671741 0.681435 
0.688369 0.682572 0.694095 0.698215 0.698368 0.699672 0.688615 0.676594 0.674473 
0.633228 0.640773 0.604241 0.604714 0.601314 0.602067 0.610634 0.645596 0.672375 
0.711052 0.729509 0.724189 0.731539 0.719394 0.707497 0.691298 0.683328 0.673645 
0.662828 0.653015 0.647674 0.642382 0.636812 0.631531 0.629789 0.628935 0.629819 
0.629199 0.632282 0.635707 0.639615 0.63786 0.642406 0.63432 0.620019 0.59368 