# vtk DataFile Version 3.0
vtk output
ASCII
DATASET UNSTRUCTURED_GRID
POINTS 1012 double
-146.568 48.1104 -0.00773282 -147.568 50.3941 -14.0955 -143.33 50.5286 10.1547 
-144.273 59.2282 -12.9413 -143.656 58.0437 -3.53694 -145.343 44.1782 -7.9966 
-143.526 59.9284 10.3132 -144.807 38.8811 12.4856 -144.061 40.5734 17.1582 
-145.92 44.213 -19.232 -144.191 57.7658 -24.125 -144.203 68.6812 -12.0131 
-144.841 37.4974 -2.00471 -141.689 49.8669 21.4033 -144.334 41.573 6.72079 
-144.367 34.7177 -26.3227 -145.248 36.7089 -15.9851 -143.357 67.0964 -3.12596 
-130.966 42.0985 6.12593 -145.089 42.7259 -0.0588947 -145.824 28.3074 -4.57587 
-133.368 49.3885 13.3071 -140.512 60.9683 19.1592 -142.819 44.8262 12.7175 
-142.18 32.639 19.5361 -143.351 37.3349 7.93113 -138.783 38.3688 25.9504 
-139.153 54.4071 31.5332 -143.325 45.2119 -26.9505 -123.223 43.1148 -16.1039 
-118.368 68.8865 -9.37337 -141.533 66.3386 -20.8739 -140.332 73.9782 -6.81192 
-141.253 67.7809 5.66689 -142.31 19.7907 -1.90139 -144.529 28.548 4.92666 
-123.795 58.897 8.70882 -140.051 62.6344 27.9933 -139.727 69.0507 14.7107 
-135.884 39.1874 13.0037 -143.163 34.2923 11.263 -144.403 28.9271 10.4751 
-132.082 41.9986 -28.0684 -145.931 27.2415 -23.7646 -143.039 27.5023 -31.2779 
-140.121 48.5675 -33.5652 -145.249 24.3386 -16.2819 -138.358 63.108 -28.966 
-137.567 75.4585 -16.0388 -138.149 79.3436 10.1369 -135.712 73.0235 -24.4174 
-136.328 79.013 -1.45348 -143.384 38.2878 2.8707 -141.452 32.705 0.478786 
-142.701 19.1033 -10.2486 -142.411 20.6488 6.35544 -142.501 11.0074 -12.4207 
-141.892 22.8414 14.3457 -137.652 26.3622 29.9365 -131.998 40.3994 36.4942 
-135.657 45.9835 30.1228 -126.326 24.1189 -20.2067 -139.376 34.2903 -35.6242 
-140.532 16.4358 -37.2271 -136.327 55.6789 -34.1318 -135.954 69.3676 -34.9323 
-133.377 77.1095 -31.1936 -128.074 93.8843 -3.40614 -131.418 88.2343 3.89596 
-134.242 82.8649 -12.3427 -122.028 35.1537 13.284 -140.051 11.1142 5.9947 
-138.542 -0.949804 7.1204 -127.466 67.0715 25.1045 -122.175 58.4285 31.3228 
-137.882 74.505 21.9617 -134.508 29.2783 12.1417 -139.222 25.0339 21.8941 
-142.771 32.687 6.71454 -133.216 58.929 35.7519 -127.706 44.6259 42.7544 
-131.864 28.4174 -31.3079 -144.215 16.8212 -19.6926 -143.596 19.493 -27.547 
-134.141 62.063 -42.8379 -104.183 60.7753 18.092 -124.035 100.487 -11.3276 
-122.59 100.667 8.65956 -132.071 80.5622 -20.8676 -131.424 85.6368 -4.49669 
-117.035 16.3147 4.81901 -139.09 11.9273 -2.42516 -139.387 14.748 13.6509 
-136.41 69.3053 26.4964 -134.27 10.5137 26.0949 -133.28 33.1609 32.3544 
-129.413 52.8131 40.4025 -134.208 75.9461 27.4003 -133.348 66.7891 32.3326 
-119.941 37.3683 -27.3122 -135.351 44.9135 -38.9677 -128.085 36.0594 -37.3811 
-135.065 22.9105 -39.6139 -139.09 11.5594 -30.8478 -130.473 53.5152 -45.4831 
-103.509 47.4611 -28.8356 -105.768 77.9826 17.8783 -115.558 63.2898 -34.7614 
-131.103 70.8852 -45.3785 -132.404 76.3281 -39.3489 -123.541 84.3326 -54.0682 
-114.26 109.089 -27.0087 -127.075 94.8852 12.0289 -129.613 92.0138 -12.9222 
-120.078 105.006 -5.48676 -97.9902 27.388 -22.7349 -78.5928 33.3821 -9.09631 
-133.29 80.1847 21.5059 -141.126 9.90052 -23.1242 -135.575 -4.30886 0.254363 
-118.171 67.4935 25.6983 -135.421 17.6806 22.5207 -129.587 28.7805 38.5469 
-127.879 64.9764 38.7005 -126.469 24.8111 -39.5211 -126.643 46.2504 -55.8977 
-130.899 60.3926 -51.7939 -131.574 15.4928 -42.8232 -138.568 2.39406 -28.7399 
-135.529 7.10208 -36.6791 -127.741 46.6359 -41.758 -81.4215 51.3233 -23.3458 
-100.695 88.8521 -12.7356 -120.024 83.1563 -19.521 -129.916 85.4781 17.7451 
-128.315 83.143 -28.7367 -114.162 77.7722 -30.3014 -126.9 82.5031 -37.1531 
-129.102 78.2109 -48.5415 -116.44 95.0614 -43.2671 -119.886 99.9699 -31.2778 
-114.415 88.312 -6.51287 -121.265 99.583 0.788021 -125.248 94.127 -21.9743 
-119.822 102.716 15.9416 -129.326 78.049 31.5113 -111.063 57.2256 33.5423 
-97.9837 41.0201 28.362 -134.762 0.439089 -10.6914 -135.803 4.07807 -2.67611 
-135.637 7.69425 16.557 -138.429 -12.1352 11.9053 -136.507 0.830371 -19.3731 
-136.241 -11.5987 3.9482 -123.079 65.9037 30.4642 -130.979 72.2992 32.0301 
-131.745 15.6918 31.7761 -125.113 36.3066 40.5651 -124.019 72.3958 40.6503 
-128.797 67.1997 34.3315 -128.142 10.5021 38.1628 -121.548 54.5567 44.6741 
-119.844 45.7439 46.278 -112.832 9.81243 -22.5291 -117.771 25.4716 -40.9327 
-127.43 54.376 -58.0446 -128.656 3.1297 -44.9247 -84.6055 75.2892 -21.1778 
-115.898 72.7106 34.1495 -117.97 72.4883 -44.055 -128.692 69.3779 -53.0978 
-122.754 75.2511 -60.4583 -123.406 84.6069 -44.6773 -113.973 93.4307 -51.7544 
-121.58 90.4281 -37.5317 -105.846 113.804 -18.3728 -111.222 106.895 -35.1143 
-96.2172 113.31 -38.4364 -112.131 107.97 -18.7674 -117.87 101.717 -20.0568 
-114.43 105.438 7.47323 -109.901 103.099 26.8695 -116.903 94.6198 23.5487 
-125.548 92.9389 20.8895 -124.146 88.788 30.2915 -122.846 79.1436 36.2843 
-113.523 10.1117 23.1408 -90.208 -2.16873 7.11861 -73.6287 48.5498 19.806 
-136.247 0.797321 24.0648 -136.028 -20.041 11.5529 -134.778 -20.1275 -4.35284 
-135.249 -6.1549 16.6502 -125.511 74.0546 34.1589 -127.698 83.2516 25.3488 
-132.151 5.55055 32.1231 -123.917 18.1863 37.7445 -122.59 25.5032 40.8847 
-127.407 0.0797214 36.7672 -115.375 28.9645 48.5964 -111.856 39.2552 50.1043 
-119.947 46.0303 -44.5039 -111.95 31.788 -43.0072 -119.507 35.9094 -40.2391 
-120.027 41.5621 -53.5525 -125.26 63.0682 -57.2908 -133.336 -1.3211 -38.7375 
-123.436 12.1596 -49.6393 -119.817 -20.612 -34.6225 -83.7068 72.2769 21.2086 
-102.365 68.6194 -49.239 -94.2646 62.603 32.1258 -115.651 88.1841 32.0655 
-106.102 93.5486 18.0391 -123.411 90.0793 -29.2298 -111.804 102.703 -42.3206 
-118.2 74.7075 -70.6015 -106.44 93.3206 -62.8414 -120.913 63.6574 -64.3574 
-97.8332 119.8 -20.6167 -113.651 107.305 -10.3441 -106.602 111.616 -29.9945 
-103.396 93.0305 -32.5273 -103.299 108.446 -37.2734 -94.8611 107.768 -44.9641 
-99.6473 116.669 -30.2132 -111.029 108.797 -1.76443 -109.886 106.569 16.7605 
-81.6567 98.1382 37.6254 -107.695 79.5318 41.5969 -116.094 82.8222 38.9022 
-102.751 98.8588 28.466 -104.205 110.033 11.9191 -92.0687 17.2016 25.7655 
-74.9088 0.106988 -11.3733 -105.702 35.7287 37.4197 -130.088 -18.2291 21.0703 
-136.457 -19.6435 3.5148 -132.006 -6.94708 -6.6398 -106.452 -19.0149 3.98319 
-135.713 -6.38928 -31.7617 -129.836 -27.6463 -12.2795 -120.313 65.1919 41.8152 
-115.669 14.0221 48.8859 -121.524 5.18972 40.411 -111.401 53.0398 47.7728 
-117.572 36.1637 44.5661 -108.003 46.57 52.1455 -107.988 24.469 -41.7647 
-102.318 30.3493 -43.7851 -123.721 18.1973 -43.8508 -132.096 -5.54417 -23.6991 
-117.4 4.02359 -51.0361 -125.553 -7.47703 -41.9441 -120.852 -0.670541 -44.5939 
-51.093 62.1593 -3.18141 -75.197 29.0047 -37.1728 -84.3195 36.0314 -45.9964 
-85.3604 50.8824 -53.2962 -108.031 86.3005 36.0084 -87.0904 90.3755 12.0899 
-104.309 111.365 3.79989 -115.747 86.2467 -54.9953 -102.624 99.2537 -50.5633 
-114.036 83.2561 -62.3022 -110.776 78.1588 -68.2844 -91.4435 94.014 -63.6121 
-96.5425 117.914 -10.3623 -102.119 104.185 -44.1077 -85.896 108.738 -44.3465 
-94.9715 102.673 -51.7177 -88.0057 115.168 -36.3673 -91.4235 90.5232 41.1001 
-95.8054 80.8716 48.3869 -114.359 70.5523 43.4865 -109.38 93.756 29.7595 
-89.4389 108.894 20.6379 -92.0257 -9.01928 -11.6244 -109.163 -8.36239 -9.91049 
-115.405 21.8798 41.5161 -75.8824 18.8756 -26.3239 -59.1639 9.40027 11.4028 
-102.499 53.0387 49.4385 -103.771 41.8506 46.2811 -73.3524 53.2692 36.8648 
-94.0439 38.538 42.4996 -129.727 -8.19628 26.3411 -133.984 -28.4767 4.21728 
-129.553 -28.1732 13.9059 -128.275 -22.3195 1.29781 -130.471 -8.97463 -14.9001 
-132.147 -28.2275 -4.0991 -124.213 68.5163 36.8847 -115.59 61.0366 47.0501 
-119.058 -2.68199 40.826 -123.464 -7.50002 35.7674 -114.568 39.3444 -46.9893 
-119.83 55.504 -61.8845 -99.6323 20.9639 -43.3902 -113.443 19.1566 -45.3459 
-120.476 45.215 -61.5682 -116.282 15.2006 -51.7694 -109.719 -2.17986 -48.3708 
-119.293 -13.4353 -39.8479 -101.572 -16.0075 -40.4636 -122.523 -32.9352 -10.5888 
-109.841 -49.3941 -8.64669 -65.2706 35.5868 -28.2898 -51.6165 30.2987 22.0258 
-98.0247 35.7011 -50.7408 -69.0165 79.6265 -51.912 -88.1188 84.8291 -40.6968 
-104.219 71.3313 44.6466 -100.225 84.9774 39.8145 -85.6297 98.6727 -29.3055 
-100.034 91.4757 31.5916 -71.8858 93.4699 3.76467 -102.365 81.8111 -54.4036 
-107.295 85.8267 -67.0631 -113.952 53.232 -67.7198 -113.744 62.1887 -70.0099 
-107.951 68.9058 -72.6235 -98.8482 87.6442 -66.8254 -98.8686 96.9995 -58.8066 
-90.4268 86.7661 -68.0391 -90.5104 100.333 -58.3133 -75.4651 104.671 -54.6385 
-91.5677 115.768 -28.9805 -103.829 110.571 -7.02902 -87.9146 120.305 -23.1767 
-86.5793 103.741 -51.8469 -83.9205 119.351 -30.4285 -99.2662 105.376 16.5699 
-63.7838 86.0155 44.7109 -83.6766 83.7486 45.2835 -97.0859 100.29 22.6659 
-87.5089 114.427 7.28643 -84.867 -5.39616 -32.6277 -119.291 12.8641 41.7326 
-89.7934 -5.59882 28.6538 -55.3445 12.278 -25.8874 -87.9774 -20.6 5.69008 
-72.8266 -7.6812 22.6544 -106.609 60.7007 47.1643 -77.4985 67.3124 33.866 
-76.7144 35.2257 53.2873 -127.115 -15.9271 28.6815 -124.108 -39.8544 12.1582 
-129.513 -17.3073 -12.8148 -127.649 -38.2722 -0.439473 -110.449 21.3202 50.2022 
-114.008 5.61481 45.9188 -121.991 -19.3729 34.507 -111.26 -2.97416 43.5329 
-118.025 -30.027 30.5725 -106.524 33.2827 50.1852 -101.584 38.386 53.8828 
-92.3626 44.1078 55.7815 -111.279 45.9444 -62.6223 -111.498 40.1905 -55.3364 
-108.592 34.5142 -50.0624 -83.1193 7.05704 -40.9122 -125.584 -11.6724 -31.9631 
-110.284 10.5287 -54.447 -97.6346 6.00328 -58.7197 -92.8221 -36.95 -24.0168 
-122.51 -40.2765 -6.67005 -113.646 -34.7481 -12.085 -119.204 -25.4841 -14.8056 
-102.765 -7.62382 -44.8142 -103.295 -52.8733 -0.0692926 -95.5729 -49.4389 -14.4885 
-55.2799 64.6916 -33.5886 -34.1316 46.7991 2.30332 -36.5616 45.9993 20.896 
-72.6531 44.2871 -43.5086 -82.2209 17.5417 -45.133 -48.7059 75.1585 17.5656 
-68.689 54.8754 -55.9206 -94.358 73.0164 -57.4381 -91.5605 74.8176 45.0768 
-91.9785 94.1456 33.2653 -62.5552 85.3175 21.611 -94.7613 113.636 -0.638548 
[...]
CELL_DATA 3372
SCALARS scalars float
LOOKUP_TABLE lookup_table
1 1 1 1 1 1 1 1 1 
1 1 1 1 1 1 1 1 1 
1 1 1 1 1 1 1 1 1 
1 1 1 1 1 1 1 1 1 
1 1 1 1 1 1 1 1 1 
1 1 1 1 1 1 1 1 1 
1 1 1 1 1 1 1 1 1 
1 1 1 1 1 1 1 1 1 
1 1 1 1 1 1 1 1 1 
1 1 1 1 1 1 1 1 1 
1 1 1 1 1 1 1 1 1 
1 1 1 1 1 1 1 1 1 
1 1 1 1 1 1 1 1 1 
1 1 1 1 1 1 1 1 1 
1 1 1 1 1 1 1 1 1 
1 1 1 1 1 1 1 1 1 
1 1 1 1 1 1 1 1 1 
1 1 1 1 1 1 1 1 1 
1 1 1 1 1 1 1 1 1 
1 1 1 1 1 1 1 1 1 
1 1 1 1 1 1 1 1 1 
1 1 1 1 1 1 1 1 1 
1 1 1 1 1 1 1 1 1 
1 1 1 1 1 1 1 1 1 
1 1 1 1 1 1 1 1 1 
1 1 1 1 1 1 1 1 1 
1 1 1 1 1 1 1 1 1 
1 1 1 1 1 1 1 1 1 
1 1 1 1 1 1 1 1 1 
1 1 1 1 1 1 1 1 1 
1 1 1 1 1 1 1 1 1 
1 1 1 1 1 1 1 1 1 
1 1 1 1 1 1 1 1 1 
1 1 1 1 1 1 1 1 1 
1 1 1 1 1 1 1 1 1 
1 1 1 1 1 1 1 1 1 
1 1 1 1 1 1 1 1 1 
1 1 1 1 1 1 1 1 1 
1 1 1 1 1 1 1 1 1 
1 1 1 1 1 1 1 1 1 
1 1 1 1 1 1 1 1 1 
1 1 1 1 1 1 1 1 1 
1 1 1 1 1 1 1 1 1 
1 1 1 1 1 1 1 1 1 
1 1 1 1 1 1 1 1 1 
1 1 1 1 1 1 1 1 1 
1 1 1 1 1 1 1 1 1 
1 1 1 1 1 1 1 1 1 
1 1 1 1 1 1 1 1 1 
1 1 1 1 1 1 1 1 1 
1 1 1 1 1 1 1 1 1 
1 1 1 1 1 1 1 1 1 
1 1 1 1 1 1 1 1 1 
1 1 1 1 1 1 1 1 1 
1 1 1 1 1 1 1 1 1 
1 1 1 1 1 1 1 1 1 
1 1 1 1 1 1 1 1 1 
1 1 1 1 1 1 1 1 1 
1 1 1 1 1 1 1 1 1 
1 1 1 1 1 1 1 1 1 
1 1 1 1 1 1 1 1 1 
1 1 1 1 1 1 1 1 1 
1 1 1 1 1 1 1 1 1 
1 1 1 1 1 1 1 1 1 
1 1 1 1 1 1 1 1 1 
1 1 1 1 1 1 1 1 1 
1 1 1 1 1 1 1 1 1 
1 1 1 1 1 1 1 1 1 
1 1 1 1 1 1 1 1 1 
1 1 1 1 1 1 1 1 1 
1 1 1 1 1 1 1 1 1 
1 1 1 1 1 1 1 1 1 
1 1 1 1 1 1 1 1 1 
1 1 1 1 1 1 1 1 1 
1 1 1 1 1 1 1 1 1 
1 1 1 1 1 1 1 1 1 
1 1 1 1 1 1 1 1 1 
1 1 1 1 1 1 1 1 1 
1 1 1 1 1 1 1 1 1 
1 1 1 1 1 1 1 1 1 
1 1 1 1 1 1 1 1 1 
1 1 1 1 1 1 1 1 1 
1 1 1 1 1 1 1 1 1 
1 1 1 1 1 1 1 1 1 
1 1 1 1 1 1 1 1 1 
1 1 1 1 1 1 1 1 1 
1 1 1 1 1 1 1 1 1 
1 1 1 1 1 1 1 1 1 
1 1 1 1 1 1 1 1 1 
1 1 1 1 1 1 1 1 1 
1 1 1 1 1 1 1 1 1 
1 1 1 1 1 1 1 1 1 
1 1 1 1 1 1 1 1 1 
1 1 1 1 1 1 1 1 1 
1 1 1 1 1 1 1 1 1 
1 1 1 1 1 1 1 1 1 
1 1 1 1 1 1 1 1 1 
1 1 1 1 1 1 1 1 1 
1 1 1 1 1 1 1 1 1 
1 1 1 1 1 1 1 1 1 
1 1 1 1 1 1 1 1 1 
1 1 1 1 1 1 1 1 1 
1 1 1 1 1 1 1 1 1 
1 1 1 1 1 1 1 1 1 
1 1 1 1 1 1 1 1 1 
1 1 1 1 1 1 1 1 1 
1 1 1 1 1 1 1 1 1 
1 1 1 1 1 1 1 1 1 
1 1 1 1 1 1 1 1 1 
1 1 1 1 1 1 1 1 1 
1 1 1 1 1 1 1 1 1 
1 1 1 1 1 1 1 1 1 
1 1 1 1 1 1 1 1 1 
1 1 1 1 1 1 1 1 1 
1 1 1 1 1 1 1 1 1 
1 1 1 1 1 1 1 1 1 
1 1 1 1 1 1 1 1 1 
1 1 1 1 1 1 1 1 1 
1 1 1 1 1 1 1 1 1 
1 1 1 1 1 1 1 1 1 
1 1 1 1 1 1 1 1 1 
1 1 1 1 1 1 1 1 1 
1 1 1 1 1 1 1 1 1 
1 1 1 1 1 1 1 1 1 
1 1 1 1 1 1 1 1 1 
1 1 1 1 1 1 1 1 1 
1 1 1 1 1 1 1 1 1 
1 1 1 1 1 1 1 1 1 
1 1 1 1 1 1 1 1 1 
1 1 1 1 1 1 1 1 1 
1 1 1 1 1 1 1 1 1 
1 1 1 1 1 1 1 1 1 
1 1 1 1 1 1 1 1 1 
1 1 1 1 1 1 1 1 1 
1 1 1 1 1 1 1 1 1 
1 1 1 1 1 1 1 1 1 
1 1 1 1 1 1 1 1 1 
1 1 1 1 1 1 1 1 1 
1 1 1 1 1 1 1 1 1 
1 1 1 1 1 1 1 1 1 
1 1 1 1 1 1 1 1 1 
1 1 1 1 1 1 1 1 1 
1 1 1 1 1 1 1 1 1 
1 1 1 1 1 1 1 1 1 
1 1 1 1 1 1 1 1 1 
1 1 1 1 1 1 1 1 1 
1 1 1 1 1 1 1 1 1 
1 1 1 1 1 1 1 1 1 
1 1 1 1 1 1 1 1 1 
1 1 1 1 1 1 1 1 1 
1 1 1 1 1 1 1 1 1 
1 1 1 1 1 1 1 1 1 
1 1 1 1 1 1 1 1 1 
1 1 1 1 1 1 1 1 1 
1 1 1 1 1 1 1 1 1 
1 1 1 1 1 1 1 1 1 
1 1 1 1 1 1 1 1 1 
1 1 1 1 1 1 1 1 1 
1 1 1 1 1 1 1 1 1 
1 1 1 1 1 1 1 1 1 
1 1 1 1 1 1 1 1 1 
1 1 1 1 1 1 1 1 1 
1 1 1 1 1 1 1 1 1 
1 1 1 1 1 1 1 1 1 
1 1 1 1 1 1 1 1 1 
1 1 1 1 1 1 1 1 1 
1 1 1 1 1 1 1 1 1 
1 1 1 1 1 1 1 1 1 
1 1 1 1 1 1 1 1 1 
1 1 1 1 1 1 1 1 1 
1 1 1 1 1 1 1 1 1 
1 1 1 1 1 1 1 1 1 
1 1 1 1 1 1 1 1 1 
1 1 1 1 1 1 1 1 1 
1 1 1 1 1 1 1 1 1 
1 1 1 1 1 1 1 1 1 
1 1 1 1 1 1 1 1 1 
1 1 1 1 1 1 1 1 1 
1 1 1 1 1 1 1 1 1 
1 1 1 1 1 1 1 1 1 
1 1 1 1 1 1 1 1 1 
1 1 1 1 1 1 1 1 1 
1 1 1 1 1 1 1 1 1 
1 1 1 1 1 1 1 1 1 
1 1 1 1 1 1 1 1 1 
1 1 1 1 1 1 1 1 1 
1 1 1 1 1 1 1 1 1 
1 1 1 1 1 1 1 1 1 
1 1 1 1 1 1 1 1 1 
1 1 1 1 1 1 1 1 1 
1 1 1 1 1 1 1 1 1 
1 1 1 1 1 1 1 1 1 
1 1 1 1 1 1 1 1 1 
1 1 1 1 1 1 1 1 1 
1 1 1 1 1 1 1 1 1 
1 1 1 1 1 1 1 1 1 
1 1 1 1 1 1 1 1 1 
1 1 1 1 1 1 1 1 1 
1 1 1 1 1 1 1 1 1 
1 1 1 1 1 1 1 1 1 
1 1 1 1 1 1 1 1 1 
1 1 1 1 1 1 1 1 1 
1 1 1 1 1 1 1 1 1 
1 1 1 1 1 1 1 1 1 
1 1 1 1 1 1 1 1 1 
1 1 1 1 1 1 1 1 1 
1 1 1 1 1 1 1 1 1 
1 1 1 1 1 1 1 1 1 
1 1 1 1 1 1 1 1 1 
1 1 1 1 1 1 1 1 1 
1 1 1 1 1 1 1 1 1 
1 1 1 1 1 1 1 1 1 
1 1 1 1 1 1 1 1 1 
1 1 1 1 1 1 1 1 1 
1 1 1 1 1 1 1 1 1 
1 1 1 1 1 1 1 1 1 
1 1 1 1 1 1 1 1 1 
1 1 1 1 1 1 1 1 1 
1 1 1 1 1 1 1 1 1 
1 1 1 1 1 1 1 1 1 
1 1 1 1 1 1 1 1 1 
1 1 1 1 1 1 1 1 1 
1 1 1 1 1 1 1 1 1 
1 1 1 1 1 1 1 1 1 
1 1 1 1 1 1 1 1 1 
1 1 1 1 1 1 1 1 1 
1 1 1 1 1 1 1 1 1 
1 1 1 1 1 1 1 1 1 
1 1 1 1 1 1 1 1 1 
1 1 1 1 1 1 1 1 1 
1 1 1 1 1 1 1 1 1 
1 1 1 1 1 1 1 1 1 
1 1 1 1 1 1 1 1 1 
1 1 1 1 1 1 1 1 1 
1 1 1 1 1 1 1 1 1 
1 1 1 1 1 1 1 1 1 
1 1 1 1 1 1 1 1 1 
1 1 1 1 1 1 1 1 1 
1 1 1 1 1 1 1 1 1 
1 1 1 1 1 1 1 1 1 
1 1 1 1 1 1 1 1 1 
1 1 1 1 1 1 1 1 1 
1 1 1 1 1 1 1 1 1 
1 1 1 1 1 1 1 1 1 
1 1 1 1 1 1 1 1 1 
1 1 1 1 1 1 1 1 1 
1 1 1 1 1 1 1 1 1 
1 1 1 1 1 1 1 1 1 
1 1 1 1 1 1 1 1 1 
1 1 1 1 1 1 1 1 1 
1 1 1 1 1 1 1 1 1 
1 1 1 1 1 1 1 1 1 
1 1 1 1 1 1 1 1 1 
1 1 1 1 1 1 1 1 1 
1 1 1 1 1 1 1 1 1 
1 1 1 1 1 1 1 1 1 
1 1 1 1 1 1 1 1 1 
1 1 1 1 1 1 1 1 1 
1 1 1 1 1 1 1 1 1 
1 1 1 1 1 1 1 1 1 
1 1 1 1 1 1 1 1 1 
1 1 1 1 1 1 1 1 1 
1 1 1 1 1 1 1 1 1 
1 1 1 1 1 1 1 1 1 
1 1 1 1 1 1 1 1 1 
1 1 1 1 1 1 1 1 1 
1 1 1 1 1 1 1 1 1 
1 1 1 1 1 1 1 1 1 
1 1 1 1 1 1 1 1 1 
1 1 1 1 1 1 1 1 1 
1 1 1 1 1 1 1 1 1 
1 1 1 1 1 1 1 1 1 
1 1 1 1 1 1 1 1 1 
1 1 1 1 1 1 1 1 1 
1 1 1 1 1 1 1 1 1 
1 1 1 1 1 1 1 1 1 
1 1 1 1 1 1 1 1 1 
1 1 1 1 1 1 1 1 1 
1 1 1 1 1 1 1 1 1 
1 1 1 1 1 1 1 1 1 
1 1 1 1 1 1 1 1 1 
1 1 1 1 1 1 1 1 1 
1 1 1 1 1 1 1 1 1 
1 1 1 1 1 1 1 1 1 
1 1 1 1 1 1 1 1 1 
1 1 1 1 1 1 1 1 1 
1 1 1 1 1 1 1 1 1 
1 1 1 1 1 1 1 1 1 
1 1 1 1 1 1 1 1 1 
1 1 1 1 1 1 1 1 1 
1 1 1 1 1 1 1 1 1 
1 1 1 1 1 1 1 1 1 
1 1 1 1 1 1 1 1 1 
1 1 1 1 1 1 1 1 1 
1 1 1 1 1 1 1 1 1 
1 1 1 1 1 1 1 1 1 
1 1 1 1 1 1 1 1 1 
1 1 1 1 1 1 1 1 1 
1 1 1 1 1 1 1 1 1 
1 1 1 1 1 1 1 1 1 
1 1 1 1 1 1 1 1 1 
1 1 1 1 1 1 1 1 1 
1 1 1 1 1 1 1 1 1 
1 1 1 1 1 1 1 1 1 
1 1 1 1 1 1 1 1 1 
1 1 1 1 1 1 1 1 1 
1 1 1 1 1 1 1 1 1 
1 1 1 1 1 1 1 1 1 
1 1 1 1 1 1 1 1 1 
1 1 1 1 1 1 1 1 1 
1 1 1 1 1 1 1 1 1 
1 1 1 1 1 1 1 1 1 
1 1 1 1 1 1 1 1 1 
1 1 1 1 1 1 1 1 1 
1 1 1 1 1 1 1 1 1 
1 1 1 1 1 1 1 1 1 
1 1 1 1 1 1 1 1 1 
1 1 1 1 1 1 1 1 1 
1 1 1 1 1 1 1 1 1 
1 1 1 1 1 1 1 1 1 
1 1 1 1 1 1 1 1 1 
1 1 1 1 1 1 1 1 1 
1 1 1 1 1 1 1 1 1 
1 1 1 1 1 1 1 1 1 
1 1 1 1 1 1 1 1 1 
1 1 1 1 1 1 1 1 1 
1 1 1 1 1 1 1 1 1 
1 1 1 1 1 1 1 1 1 
1 1 1 1 1 1 1 1 1 
1 1 1 1 1 1 1 1 1 
1 1 1 1 1 1 1 1 1 
1 1 1 1 1 1 1 1 1 
1 1 1 1 1 1 1 1 1 
1 1 1 1 1 1 1 1 1 
1 1 1 1 1 1 1 1 1 
1 1 1 1 1 1 1 1 1 
1 1 1 1 1 1 1 1 1 
1 1 1 1 1 1 1 1 1 
1 1 1 1 1 1 1 1 1 
1 1 1 1 1 1 1 1 1 
1 1 1 1 1 1 1 1 1 
1 1 1 1 1 1 1 1 1 
1 1 1 1 1 1 1 1 1 
1 1 1 1 1 1 1 1 1 
1 1 1 1 1 1 1 1 1 
1 1 1 1 1 1 1 1 1 
1 1 1 1 1 1 1 1 1 
1 1 1 1 1 1 1 1 1 
1 1 1 1 1 1 1 1 1 
1 1 1 1 1 1 1 1 1 
1 1 1 1 1 1 1 1 1 
1 1 1 1 1 1 1 1 1 
1 1 1 1 1 1 1 1 1 
1 1 1 1 1 1 1 1 1 
1 1 1 1 1 1 1 1 1 
1 1 1 1 1 1 1 1 1 
1 1 1 1 1 1 1 1 1 
1 1 1 1 1 1 1 1 1 
1 1 1 1 1 1 1 1 1 
1 1 1 1 1 1 1 1 1 
1 1 1 1 1 1 1 1 1 
1 1 1 1 1 1 1 1 1 
1 1 1 1 1 1 1 1 1 
1 1 1 1 1 1 1 1 1 
1 1 1 1 1 1 1 1 1 
1 1 1 1 1 1 1 1 1 
1 1 1 1 1 1 1 1 1 
1 1 1 1 1 1 1 1 1 
1 1 1 1 1 1 1 1 1 
1 1 1 1 1 1 1 1 1 
1 1 1 1 1 1 1 1 1 
1 1 1 1 1 1 1 1 1 
1 1 1 1 1 1 1 1 1 
1 1 1 1 1 1 1 1 1 
1 1 1 1 1 1 
LOOKUP_TABLE lookup_table 2
1 0 0 1
0.996078 0 1 1

