# vtk DataFile Version 3.0
vtk output
ASCII
DATASET UNSTRUCTURED_GRID
POINTS 687 float
5 7 10 5 7 10 5 8 11.25 
5 8.25 11 5 8 10 5 7 11.25 
5 7.5 13 5 8 12.5 5 7 10.3125 
5 7 10.625 5 7 10.9375 5 7.38766 11.25 
5 7.64592 11.25 5 7.80052 11.25 5 7.90878 11.25 
5 8.01755 11.158 5 8.07322 11.0732 5 8.15798 11.0176 
5 8.25 10.1644 5 8.25 10.3763 5 8.25 10.5485 
5 8.25 10.6871 5 8.25 10.8026 5 8.25 10.9045 
5 7.74324 10 5 7.41786 10 5 7 11.6875 
5 7 12.125 5 7 12.5625 5 7.30926 13 
5 7.68405 12.9649 5 7.85355 12.8536 5 7.96489 12.684 
5 8 12.3065 5 8 12.1233 5 8 11.9567 
5 8 11.8086 5 8 11.6771 5 8 11.5591 
5 8 11.4509 5 8 11.3489 5 7.93205 11.0425 
5 7.80734 11.0245 5 7.67859 10.99 5 7.51824 10.9746 
5 7.32515 10.9611 5 8.01086 10.2002 5 8.03769 10.3933 
5 8.06323 10.5667 5 8.09469 10.7162 5 8.13242 10.8231 
5 8.14712 10.922 5 7.39469 10.6822 5 7.65901 10.6508 
5 7.8705 10.6089 5 7.93308 10.788 5 7.93412 10.9257 
5 7.7282 10.8379 5 7.82322 10.9294 5 7.54704 10.8316 
5 8.04809 10.9431 5 8.03786 10.8514 5 7.44218 10.3424 
5 7.75573 10.2431 5 7.82664 10.4299 5 7.64261 10.4744 
5 7.91347 11.1466 5 7.79547 11.136 5 7.66053 11.123 
5 7.52214 11.1159 5 7.44943 11.7066 5 7.68075 11.6735 
5 7.84745 11.667 5 7.40022 12.1904 5 7.64784 12.1371 
5 7.83294 12.1302 5 7.85639 12.4875 5 7.71852 12.5169 
5 7.5621 12.5627 5 7.35291 12.6213 5 7.84497 12.3142 
5 7.69057 12.3325 5 7.55096 12.3619 5 7.62604 12.7508 
5 7.76505 12.6851 5 7.86211 12.6189 5 7.49298 12.7907 
5 7.85524 11.8031 5 7.83896 11.9463 5 7.6677 11.8951 
5 7.73456 11.7906 5 7.8089 11.3764 5 7.85382 11.5144 
5 7.6916 11.5296 5 7.67156 11.3874 5 7.56029 11.5433 
5 7.53983 11.3935 5 7.90972 11.3537 5 7.92118 11.4397 
5 24 8 5 24 9 5 19.75 8 
5 16 9 5 16 11 5 11.25 9 
5 11.25 11 5 8.25 9.923 5 0 13 
5 0 10 5 7 13 0 8.1543 11.019 
0 8.07322 11.0732 0 8.01904 11.1543 0 8 11.25 
2.5 8.25 11 2.5 8.15432 11.019 2.5 8.07324 11.0732 
2.5 8.01903 11.1543 2.5 8 11.25 5 8.15434 11.019 
5 8.01902 11.1543 0 7.96192 12.6914 0 7.85355 12.8536 
0 7.6914 12.9619 2.5 8 12.5 2.5 7.96192 12.6914 
2.5 7.85355 12.8536 2.5 7.6914 12.9619 2.5 7.5 13 
5 7.96192 12.6914 5 7.6914 12.9619 0 24 9 
0 24 8 0 16 9 0 16 11 
0 0 10 0 0 13 0 8.25 11 
0 8 12.5 0 7.5 13 0 26 8 
7 26 8 7 24 8 7 19.75 8 
7 16 9 7 11.25 9 7 8 10 
7 0 10 7 -2 10 0 -2 10 
0 0 -11 0 0 -8 0 -2 -8 
5 -2 -8 7 -2 -8 5 0 -8 
5 0 -11 5 8 -11 5 8 -8 
7 8 -8 5 11.25 -11 5 11.25 -9 
7 11.25 -9 5 16 -11 5 16 -9 
7 16 -9 5 19.75 -11 5 19.75 -10 
7 19.75 -10 0 24 -11 0 24 -10 
5 24 -10 5 24 -11 0 26 -10 
5 26 -10 7 26 -10 0 -12 -4 
0 -12 4 0.59691 -12 -3.95521 1.23343 -12 -3.80508 
1.86684 -12 -3.53764 2.4031 -12 -3.19767 2.82877 -12 -2.82808 
3.32044 -12 -2.2304 3.73551 -12 -1.43038 3.93533 -12 -0.71638 
3.99986 -12 0.03336 3.92368 -12 0.77765 3.70276 -12 1.51312 
3.35693 -12 2.17509 2.89656 -12 2.75861 2.35395 -12 3.23403 
1.75721 -12 3.59335 1.15512 -12 3.82958 0.56093 -12 3.96047 
0 36 4 0 -10.743 4 0 -8.8877 4 
0 -6.64749 4 0 -4.45202 4 0 -0.91936 4 
0 4.14518 4 0 6.58748 4 0 9.66416 4 
0 12.0556 4 0 14.4989 4 0 17.6266 4 
0 20.3196 4 0 24.9607 4 0 29.4472 4 
0 31.7102 4 0 33.6144 4 0 35.0694 4 
0 36 -4 0.59993 36 3.95476 1.23847 36 3.80344 
1.87132 36 3.53528 2.4058 36 3.19564 2.82825 36 2.8286 
3.31559 36 2.2376 3.73171 36 1.44025 3.93289 36 0.72964 
3.99999 36 0.00729 3.93339 36 -0.72693 3.7303 36 -1.44391 
3.33354 36 -2.21076 2.85148 36 -2.80519 2.28639 36 -3.28214 
1.63682 36 -3.64977 1.11455 36 -3.84158 0.56461 36 -3.95995 
0 34.661 -4 0 32.5627 -4 0 29.9725 -4 
0 27.9548 -4 0 24.936 -4 0 20.302 -4 
0 17.5542 -4 0 14.3512 -4 0 11.9689 -4 
0 9.52824 -4 0 6.40852 -4 0 3.7104 -4 
0 -0.45165 -4 0 -4.9424 -4 0 -7.504 -4 
0 -9.50153 -4 0 -11.0253 -4 0 2.06879 -4 
0 1.24817 -4 0 0.49795 -4 0 2.22891 4 
0 0.81573 4 0 -0.2654 4 0 21.9979 -4 
0 23.2408 -4 0 24.3368 -4 0 21.9532 4 
0 23.1639 4 0 24.2218 4 0 -2.85941 -4 
0 -1.4497 -4 0 -2.71248 4 0 -1.53432 4 
0 26.5263 -4 0 25.5061 -4 0 27.2927 4 
0 25.7706 4 2.28036 11.9291 -3.28633 1.91748 7.67834 -3.51045 
1.39183 4.80584 -3.75004 3.10004 4.74612 -2.5278 3.99902 4.81728 0.08855 
3.99929 11.9788 0.07526 3.01126 4.7799 2.63293 1.3206 4.94069 3.77571 
1.85925 7.75999 3.54164 2.26005 12.0455 3.30033 4 19.1687 0.00563 
3.05144 19.2212 -2.58625 1.3639 19.1697 -3.76029 1.9216 16.2623 -3.5082 
1.88377 16.3456 3.52866 1.37297 19.2307 3.75698 3.06558 19.3026 2.56948 
0.86913 -9.0538 -3.90444 1.36253 -6.45576 -3.76079 2.03706 -9.19679 -3.44244 
3.04279 -9.69606 -2.59642 3.11128 -6.58598 -2.51395 3.7595 -9.34266 -1.36607 
3.99985 -9.72826 0.03484 3.99986 -6.60452 0.03337 1.03898 -4.23036 -3.86271 
3.0157 -3.54152 -2.62784 2.05455 -4.03413 -3.43203 3.99994 -3.50264 0.0214 
3.74655 -3.86932 -1.40121 1.00023 2.98374 -3.87292 1.99481 2.63411 -3.46709 
2.98987 2.17564 -2.65719 3.74575 2.45304 -1.40334 3.9997 2.15958 0.04896 
3.72707 -9.3715 1.45222 2.9589 -9.71773 2.69164 3.0344 -6.63176 2.60623 
1.83862 -9.28024 3.55239 0.83367 -8.38579 3.91216 1.43719 -6.66098 3.73289 
2.82548 -3.41986 2.83137 3.71431 -3.8546 1.48454 0.80231 -4.99714 3.91871 
1.77296 -4.35265 3.58561 3.70922 2.45004 1.49723 2.93365 2.16411 2.71913 
1.91758 2.60035 3.5104 0.80755 2.87316 3.91763 0.98341 21.0045 -3.87723 
2.96254 21.8143 -2.68763 1.97163 21.3626 -3.48032 4 21.8263 -0.0017 
3.72906 21.5439 -1.4471 0.84747 28.4195 -3.90919 1.34399 31.0003 -3.76745 
1.95439 28.5374 -3.49004 2.87262 27.5375 -2.78353 3.07745 30.8031 -2.55525 
3.72995 27.9379 -1.4448 3.99996 27.5711 0.01726 3.99996 30.7106 0.01826 
1.04168 33.1935 -3.86198 3.05671 33.7806 -2.58002 2.08878 33.3701 -3.4113 
3.99999 33.7855 0.01071 3.75229 33.4182 -1.38575 2.97043 21.8482 2.67891 
3.73117 21.5642 1.44167 0.98998 21.028 3.87556 1.97903 21.3942 3.47613 
3.71189 27.9005 1.4906 2.82811 27.4453 2.82874 3.04412 30.7018 2.59487 
1.93597 28.3735 3.50029 0.86823 28.146 3.90463 1.3057 30.7039 3.78089 
3.02368 33.7595 2.61866 3.74268 33.397 1.41152 0.86284 33.1639 3.90583 
2.02665 33.2848 3.44858 0.53032 -10.5458 -3.96469 1.24149 -10.7951 -3.80246 
1.85972 -10.739 -3.54139 2.44302 -10.9691 -3.16728 3.06586 -11.1071 -2.56914 
3.48459 -10.8306 -1.96409 3.7465 -10.7956 -1.40133 3.93436 -10.9762 -0.72168 
3.99993 -10.9299 0.02358 0.54517 -3.49606 -3.96268 1.86409 -2.61933 -3.53909 
1.12497 -2.64827 -3.83855 2.9571 -2.35459 -2.69361 2.44919 -2.36751 -3.16251 
3.72692 -2.41852 -1.45261 3.39583 -2.27834 -2.11384 3.99998 -2.31918 0.01383 
3.93224 -2.2631 -0.73315 0.48601 2.25066 -3.97036 1.03264 1.61027 -3.86441 
1.64176 1.01027 -3.64755 2.37715 1.13073 -3.21701 2.91683 0.91806 -2.73717 
3.38248 1.09831 -2.13514 3.72047 0.97203 -1.46904 3.93264 1.103 -0.73102 
3.99992 0.92061 0.02526 3.92483 -10.9867 0.77183 3.71071 -10.8422 1.49354 
3.3623 -10.9829 2.16677 2.9046 -10.9215 2.75014 2.34975 -10.9585 3.23708 
1.73632 -10.8351 3.6035 1.08728 -11.0164 3.84939 0.76552 -9.85185 3.92606 
3.70832 -2.40724 1.49945 3.9251 -2.25836 0.77044 2.9009 -2.24119 2.75405 
3.3515 -2.23326 2.18344 2.02728 -2.75573 3.44821 2.48468 -2.05245 3.1347 
0.75188 -3.60736 3.9287 1.14269 -2.47261 3.83331 3.92189 1.10123 0.78663 
3.70058 0.96959 1.51845 3.351 1.09403 2.18422 2.88114 0.91095 2.77471 
2.33539 1.11346 3.24745 1.59742 0.95017 3.66719 0.99331 1.51146 3.87471 
0.55744 1.91642 3.96097 0.49282 21.7568 -3.96953 1.62708 22.9996 -3.65412 
1.03614 22.3695 -3.86347 2.91706 23.0854 -2.73692 2.36484 22.8705 -3.22607 
3.71028 23.0214 -1.4946 3.37648 22.8891 -2.14462 3.9999 23.0778 -0.02841 
3.92467 22.8842 -0.77261 0.51979 26.9399 -3.96608 1.2839 26.7399 -3.78835 
2.11377 26.9015 -3.39588 2.52051 26.1316 -3.10597 2.93463 26.3152 -2.71807 
3.36843 26.2864 -2.15724 3.71832 26.4622 -1.47449 3.92922 26.2994 -0.74917 
3.99998 26.3685 0.01184 0.55062 33.9394 -3.96192 1.97271 35.0239 -3.47972 
1.14169 34.811 -3.83361 3.08146 35.1197 -2.55042 2.58816 34.8824 -3.04982 
3.73846 34.839 -1.42265 3.48539 34.8596 -1.96266 3.99999 34.9623 0.00668 
3.93189 35.0007 -0.73504 3.72154 23.0373 1.46633 3.93176 22.8918 0.73573 
2.91935 23.0975 2.73448 3.38141 22.9046 2.13684 1.64466 23.007 3.64624 
2.37652 22.8746 3.21747 0.49487 21.7358 3.96927 1.0407 22.3613 3.86225 
3.92575 26.2931 0.76713 3.70601 26.448 1.50515 3.34197 26.263 2.198 
2.88063 26.2536 2.77524 2.47122 26.0537 3.14532 2.08148 26.8047 3.41576 
1.2917 26.6842 3.7857 0.68296 26.9319 3.94126 3.73438 34.8292 1.43333 
3.92972 34.9963 0.74652 3.0571 35.1329 2.57956 3.47547 34.8531 1.98018 
1.86379 34.7857 3.53925 2.44652 34.9947 3.16457 0.53235 34.5863 3.96442 
1.24874 34.8315 3.80009 0.52811 -1.66823 -3.96498 0.45204 -0.84639 -3.97438 
1.07292 -1.10687 -3.85342 1.78369 -1.62004 -3.58029 1.06326 -0.32748 -3.8561 
0.75907 -0.48267 -3.92732 1.56772 -0.81885 -3.67998 1.35017 -0.49395 -3.76524 
2.33715 -1.17613 -3.24619 2.91025 -1.38515 -2.74416 2.25846 -0.53158 -3.30142 
1.95131 -0.75918 -3.49176 2.87334 -0.66995 -2.78279 2.61278 -0.56887 -3.02876 
3.35142 -1.10734 -2.18357 3.71158 -1.36738 -1.49136 3.31205 -0.49745 -2.24284 
3.09024 -0.6604 -2.53977 3.69991 -0.6572 -1.52008 3.54448 -0.54599 -1.85383 
3.92279 -1.09408 -0.78213 4 -1.34705 -0.00312 3.9109 -0.48582 -0.83958 
3.81268 -0.64663 -1.20974 3.99995 -0.64705 -0.01926 3.98089 -0.53487 -0.39052 
0.35215 1.2147 -3.98447 0.60895 0.58968 -3.95338 1.09375 0.62285 -3.84756 
1.36124 0.41025 -3.76125 1.6086 0.31642 -3.6623 2.01162 0.35229 -3.45737 
2.34331 0.45551 -3.24174 2.63225 0.38019 -3.01185 2.89599 0.38569 -2.75921 
3.15088 0.35872 -2.46413 3.37306 0.45257 -2.15 3.5589 0.39074 -1.82599 
3.71344 0.41132 -1.48674 3.84224 0.37865 -1.1123 3.93218 0.46215 -0.73344 
3.98386 0.3871 -0.35896 3.99996 0.39629 0.01684 3.92995 -1.09117 0.7453 
3.70953 -1.35634 1.49646 3.93889 -0.48438 0.69651 3.98788 -0.64025 0.3112 
3.71222 -0.65148 1.48977 3.8347 -0.53622 1.13801 3.36409 -1.08533 2.16399 
2.90685 -1.3059 2.74777 3.38661 -0.48683 2.12859 3.57735 -0.64249 1.78958 
2.88925 -0.63887 2.76626 3.13069 -0.53105 2.48974 2.35752 -1.09709 3.23142 
1.80695 -1.5696 3.5686 2.29815 -0.43655 3.27391 2.65143 -0.62659 2.99499 
[...]
POINT_DATA 687
FIELD FieldData 2
displacement 3 687 float
0 0 0 0 0 -3.4 0 0 -3.4 
0 0 -3.4 0 0 -3.4 0 0 -3.4 
0 0 -3.4 0 0 -3.4 0 0 -3.4 
0 0 -3.4 0 0 -3.4 0 0 -3.4 
0 0 -3.4 0 0 -3.4 0 0 -3.4 
0 0 -3.4 0 0 -3.4 0 0 -3.4 
0 0 -3.4 0 0 -3.4 0 0 -3.4 
0 0 -3.4 0 0 -3.4 0 0 -3.4 
0 0 -3.4 0 0 -3.4 0 0 -3.4 
0 0 -3.4 0 0 -3.4 0 0 -3.4 
0 0 -3.4 0 0 -3.4 0 0 -3.4 
0 0 -3.4 0 0 -3.4 0 0 -3.4 
0 0 -3.4 0 0 -3.4 0 0 -3.4 
0 0 -3.4 0 0 -3.4 0 0 -3.4 
0 0 -3.4 0 0 -3.4 0 0 -3.4 
0 0 -3.4 0 0 -3.4 0 0 -3.4 
0 0 -3.4 0 0 -3.4 0 0 -3.4 
0 0 -3.4 0 0 -3.4 0 0 -3.4 
0 0 -3.4 0 0 -3.4 0 0 -3.4 
0 0 -3.4 0 0 -3.4 0 0 -3.4 
0 0 -3.4 0 0 -3.4 0 0 -3.4 
0 0 -3.4 0 0 -3.4 0 0 -3.4 
0 0 -3.4 0 0 -3.4 0 0 -3.4 
0 0 -3.4 0 0 -3.4 0 0 -3.4 
0 0 -3.4 0 0 -3.4 0 0 -3.4 
0 0 -3.4 0 0 -3.4 0 0 -3.4 
0 0 -3.4 0 0 -3.4 0 0 -3.4 
0 0 -3.4 0 0 -3.4 0 0 -3.4 
0 0 -3.4 0 0 -3.4 0 0 -3.4 
0 0 -3.4 0 0 -3.4 0 0 -3.4 
0 0 -3.4 0 0 -3.4 0 0 -3.4 
0 0 -3.4 0 0 -3.4 0 0 -3.4 
0 0 -3.4 0 0 -3.4 0 0 -3.4 
0 0 -3.4 0 0 -3.4 0 0 -3.4 
0 0 -3.4 0 0 -3.4 0 0 -3.4 
0 0 -3.4 0 0 -3.4 0 0 -3.4 
0 0 -3.4 0 0 -3.4 0 0 -3.4 
0 0 -3.4 0 0 -3.4 0 0 -3.4 
0 0 -3.4 0 0 -3.4 0 0 -3.4 
0 0 -3.4 0 0 -3.4 0 0 -3.4 
0 0 -3.4 0 0 -3.4 0 0 -3.4 
0 0 -3.4 0 0 -3.4 0 0 -3.4 
0 0 -3.4 0 0 -3.4 0 0 -3.4 
0 0 -3.4 0 0 -3.4 0 0 -3.4 
0 0 -3.4 0 0 -3.4 0 0 -3.4 
0 0 -3.4 0 0 -3.4 0 0 -3.4 
0 0 -3.4 0 0 -3.4 0 0 -3.4 
0 0 -3.4 0 0 -3.4 0 0 -3.4 
0 0 -3.4 0 0 -3.4 0 0 -3.4 
0 0 -3.4 0 0 -3.4 0 0 -3.4 
0 0 5.15 0 0 5.15 0 0 5.15 
0 0 5.15 0 0 5.15 0 0 5.15 
0 0 5.15 0 0 5.15 0 0 5.15 
0 0 5.15 0 0 5.15 0 0 5.15 
0 0 5.15 0 0 5.15 0 0 5.15 
0 0 5.15 0 0 5.15 0 0 5.15 
0 0 5.15 0 0 5.15 0 0 5.15 
0 0 5.15 0 0 5.15 0 0 5.15 
0 0 5.15 0 0 5.15 0 0 0 
0 0 0 0 0 0 0 0 0 
0 0 0 0 0 0 0 0 0 
0 0 0 0 0 0 0 0 0 
0 0 0 0 0 0 0 0 0 
0 0 0 0 0 0 0 0 0 
0 0 0 0 0 0 0 0 0 
0 0 0 0 -0.32868 0.915664 0 -0.522585 1.72362 
0 -0.589635 2.4017 0 -0.553214 2.76154 0 -0.373079 2.6 
0 -0.041632 3.42782 0 0.131535 3.4256 0 0.294825 3.2829 
0 0.31076 2.79641 0 0.32382 2.61137 0 0.173941 1.6 
0 0.227001 1.6 0 0.18755 0.6 0 0.096199 1.45087 
0 0.10212 1.33698 0 0.11021 0.992673 0 0.065564 0.498653 
0 0 0 0 0 0 0 0 0 
0 0 0 0 0 0 0 0 0 
0 0 0 0 0 0 0 0 0 
0 0 0 0 0 0 0 0 0 
0 0 0 0 0 0 0 0 0 
0 0 0 0 0 0 0 0 0 
0 0.101211 -0.731606 0 0.104878 -1.35412 0 0.055601 -1.61927 
0 -0.021561 -1.53635 0 -0.056469 -0.85 -0 -0.214772 -1.85 
0 -0.360969 -1.85 0 -0.48246 -1.85 0 -0.51479 -1.49266 
0 -0.544888 -1.4602 0 -0.543507 -0.96821 0 -0.500733 -0.469465 
0 -0.120528 1.15 0 0.23247 -0.323801 0 0.223887 -0.647546 
0 0.140547 -0.620368 0 0.06015 -0.350085 0 -0.43607 0.018688 
0 -0.367968 0.354044 0 -0.265628 0.72781 0 -0.196167 3.27208 
0 -0.286884 2.92118 0 -0.306666 2.6 0 -0.084329 -1.69089 
0 -0.0219 -1.41081 0 -0.081558 -0.85 0 0.264111 1.39119 
0 0.245819 1.04021 -0 0.172491 0.6 0 0.130241 0.389079 
0 -0.137782 1.15 0 -0.459998 2.84946 0 -0.410332 2.6 
0 -0.06442 -1.22336 0 -0.03339 -0.85 0 0.081989 1.24787 
0 0.20265 0.6 1.45485 -0.46236 -1.21538 1.11169 -0.489126 -0.856952 
0.777639 -0.484819 -0.565207 1.77479 -0.334767 0.047796 2.28859 -0.132783 1.43833 
2.32419 -0.11023 0.691444 1.71157 -0.013998 2.78384 0.737838 0.015883 3.33594 
1.07261 0.16675 3.09194 1.42909 0.24679 2.53868 2.24641 -0.059339 0.012166 
1.70668 -0.209509 -1.2834 0.744476 -0.2542 -1.8005 1.08539 -0.37326 -1.61787 
1.03963 0.239651 1.95406 0.713589 0.222691 1.66015 1.69657 0.137529 1.24916 
0.240177 0.157967 -0.640551 0.563373 0.192654 -0.498502 0.575191 0.111919 -0.545133 
0.746792 0.003604 -0.300491 1.31962 0.002658 -0.108753 1.08662 -0.092452 0.012189 
1.02615 -0.207236 0.348057 1.73102 -0.292525 0.885452 0.438323 0.173532 -0.082683 
1.3642 -0.065073 0.368732 0.908372 0.083651 0.012981 1.85058 -0.305315 1.35879 
1.75532 -0.18945 0.737707 0.510029 -0.452453 -0.225982 1.0369 -0.369055 -0.039474 
1.54386 -0.267061 0.387558 2.00221 -0.208481 0.895132 2.08377 -0.179107 1.59289 
1.10679 -0.324697 0.82507 0.777167 -0.38616 1.04981 1.31719 -0.510374 1.90049 
0.55969 -0.472811 1.49397 0.287359 -0.537009 1.87154 0.604151 -0.575062 2.26914 
1.29766 -0.477647 2.46802 1.74126 -0.420741 1.90849 0.360174 -0.568682 2.6637 
0.818842 -0.544055 2.6606 1.96413 -0.14081 2.26575 1.50331 -0.159514 2.78812 
1.00089 -0.138567 3.16484 0.416519 -0.138106 3.3197 0.496248 -0.15209 -1.76259 
1.50582 -0.105749 -1.26805 1.01413 -0.1378 -1.63033 2.0603 0.002029 -0.098948 
1.95687 -0.078859 -0.753997 0.367991 0.0102 -1.57079 0.549608 0.09552 -1.49302 
0.870167 0.05998 -1.47223 1.30764 0.088619 -1.19675 1.29638 0.154958 -1.09011 
1.74324 0.154621 -0.720358 1.84993 0.17083 -0.126855 1.71806 0.202059 -0.090042 
0.291043 0.123359 -1.13726 0.750987 0.15123 -0.6846 0.583525 0.13055 -1.01761 
0.997988 0.167538 -0.040444 1.06947 0.16423 -0.443499 1.50512 0.14412 1.04286 
1.95967 0.065229 0.56412 0.486521 0.240921 1.51364 1.00336 0.20301 1.39673 
1.74981 0.188259 0.480824 1.30735 0.164471 0.961593 1.30744 0.16745 0.929918 
0.882531 0.132099 1.25352 0.38658 0.100331 1.34289 0.554737 0.1161 1.35682 
0.757472 0.141258 0.620105 1.08061 0.158817 0.352757 0.248505 0.11124 1.08209 
0.589822 0.12006 0.954765 0.084932 0.08162 -0.461677 0.180082 0.07236 -0.407127 
0.269541 0.04021 -0.355225 0.324151 0.02799 -0.286532 0.35629 -0.01472 -0.17808 
0.531331 -0.03327 -0.141901 0.573175 -0.07522 -0.051657 0.571956 -0.08454 0.033188 
0.570841 -0.14111 0.150439 0.223195 0.158689 0.148373 0.807495 0.008691 0.415013 
0.467184 0.061914 0.428503 1.35754 -0.10262 0.563417 1.10714 -0.059304 0.475643 
1.75783 -0.197205 0.926277 1.60918 -0.15364 0.714285 1.89136 -0.288522 1.48847 
1.88514 -0.247389 1.20709 0.235702 -0.438628 -0.041683 0.487527 -0.372049 0.169665 
0.768061 -0.274983 0.387419 1.16463 -0.246192 0.393962 1.4468 -0.215201 0.555363 
1.71967 -0.208123 0.72646 1.88818 -0.202072 0.998868 2.01364 -0.198879 1.29592 
2.02792 -0.206814 1.62214 0.587028 -0.15321 0.251783 0.582937 -0.21301 0.397966 
0.51253 -0.21228 0.475809 0.431654 -0.25563 0.563687 0.366446 -0.2589 0.652232 
0.275557 -0.29972 0.745877 0.1508 -0.27046 0.722864 0.202283 -0.43039 1.31315 
1.74016 -0.371948 2.05595 1.87358 -0.331521 1.79464 1.3424 -0.418585 2.52655 
1.57934 -0.401338 2.34085 0.921528 -0.463437 2.71492 1.14978 -0.421272 2.67006 
0.341227 -0.512413 2.80818 0.512178 -0.452911 2.82925 1.99627 -0.202017 1.94775 
1.8608 -0.21453 2.25246 1.68485 -0.21321 2.53225 1.42291 -0.235025 2.73839 
1.15215 -0.229926 2.91615 0.767127 -0.252449 2.98932 0.484429 -0.232527 3.12182 
0.272924 -0.21321 3.1936 0.241466 -0.102669 -1.71662 0.776605 -0.0665 -1.46502 
0.501575 -0.076519 -1.61564 1.43747 -0.05995 -1.21171 1.16029 -0.076531 -1.38768 
1.86025 -0.02269 -0.747277 1.69383 -0.051939 -1.01286 2.01478 0.03603 -0.137428 
1.98814 -0.00177 -0.451314 0.217711 -0.049702 -1.35194 0.554936 -0.019091 -1.35142 
0.942473 0.029428 -1.31912 1.16422 0.033819 -1.22444 1.35662 0.057761 -1.12538 
1.59061 0.083929 -0.963704 1.74673 0.10914 -0.710196 1.87849 0.125849 -0.43843 
1.89151 0.141779 -0.136436 0.124423 0.107498 -0.951283 0.247258 0.093292 -0.480633 
0.168489 0.092831 -0.648978 0.367344 0.093487 -0.328179 0.382121 0.100643 -0.483911 
0.560427 0.121724 -0.242722 0.532638 0.108391 -0.328389 0.545642 0.118732 -0.019525 
0.557384 0.10028 -0.125307 1.86943 0.092498 0.48307 1.99455 0.058599 0.189559 
1.43895 0.146438 0.939881 1.69909 0.11689 0.755371 0.781002 0.199919 1.13862 
1.16304 0.17079 1.1009 0.236873 0.256991 1.42703 0.496439 0.241268 1.30169 
1.8828 0.154999 0.162238 1.75076 0.164031 0.445109 1.59035 0.167601 0.703466 
1.34404 0.163241 0.875513 1.15218 0.16159 0.969518 0.943645 0.14761 1.07809 
0.569258 0.126909 1.12232 0.295249 0.106291 1.14421 0.568068 0.11776 0.200779 
0.560901 0.098179 0.08741 0.366943 0.087502 0.294193 0.540537 0.1016 0.28921 
0.284076 0.097839 0.53626 0.342945 0.08104 0.433039 0.092616 0.09285 0.687618 
0.194743 0.075878 0.592702 0.25059 -0.137824 1.11498 0.217371 -0.125225 1.12438 
0.507715 -0.117429 1.00342 0.812434 -0.073347 0.73029 0.507112 -0.103814 1.0061 
0.364116 -0.113759 1.07732 0.704981 -0.112 0.837009 0.61747 -0.114617 0.91524 
1.08377 -0.110159 0.657268 1.3885 -0.133374 0.641396 1.04852 -0.141291 0.670627 
0.887763 -0.122231 0.729159 1.37371 -0.154403 0.677236 1.23912 -0.146902 0.653577 
1.62501 -0.168944 0.792771 1.82072 -0.200033 0.991447 1.61726 -0.176249 0.792283 
1.49386 -0.163175 0.719058 1.81995 -0.199098 1.01794 1.74436 -0.187277 0.907605 
1.9269 -0.230544 1.27139 1.96577 -0.267647 1.55959 1.93592 -0.219465 1.27196 
1.88204 -0.209436 1.12935 1.97176 -0.24857 1.58744 1.97193 -0.233703 1.44531 
0.162705 -0.362676 0.362088 0.276761 -0.268217 0.677243 0.491388 -0.252154 0.614362 
0.618355 -0.207466 0.677515 0.736358 -0.190019 0.660645 0.940728 -0.196006 0.570506 
1.11666 -0.200696 0.543395 1.27319 -0.192595 0.573795 1.41401 -0.193048 0.620796 
1.55764 -0.191255 0.693201 1.67902 -0.195294 0.783442 1.78124 -0.195574 0.896981 
1.85982 -0.200293 1.02142 1.93198 -0.203772 1.16528 1.97702 -0.208184 1.31452 
2.00262 -0.214096 1.46845 2.00414 -0.220461 1.62207 1.92043 -0.290221 1.87123 
1.804 -0.330137 2.15332 1.93999 -0.264765 1.8798 1.96531 -0.258865 1.72038 
1.8105 -0.295679 2.18385 1.88362 -0.279718 2.05415 1.61937 -0.340206 2.41443 
1.38657 -0.370008 2.60674 1.64347 -0.304948 2.43269 1.74058 -0.304225 2.30026 
1.38218 -0.330108 2.63967 1.51165 -0.317029 2.5591 1.1074 -0.368747 2.74454 
0.832168 -0.40184 2.7922 1.08736 -0.327876 2.78267 1.26255 -0.334881 2.70878 
0.712411 -0.35569 2.78526 0.912325 -0.348536 2.79563 0.472688 -0.372498 2.73568 
0.226242 -0.403215 2.71743 0.46374 -0.322527 2.72828 0.603755 -0.336198 2.7748 
0.164264 -0.367143 2.61574 0.275508 -0.327263 2.64411 1.99363 -0.226491 1.78678 
1.95915 -0.228818 1.94548 1.90819 -0.2369 2.09669 1.83553 -0.242743 2.23763 
1.74858 -0.250289 2.38012 1.64309 -0.252027 2.50724 1.52624 -0.262126 2.61595 
1.39551 -0.267575 2.7061 1.25376 -0.272391 2.78776 1.1054 -0.270018 2.85215 
0.93945 -0.280722 2.88064 0.736198 -0.289972 2.86547 0.615082 -0.286236 2.85598 
0.490919 -0.279961 2.89088 0.280056 -0.284884 2.88342 0.207502 -0.254344 3.0672 
0.201027 -0.05081 -1.54877 0.497771 -0.044559 -1.38107 0.280218 -0.03317 -1.38513 
0.748273 -0.054461 -1.31541 0.627124 -0.050141 -1.32647 1.12055 -0.055969 -1.30926 
0.955506 -0.057049 -1.3308 1.4324 -0.03574 -1.16359 1.27517 -0.04792 -1.25093 
1.6637 -0.025961 -0.986384 1.57017 -0.033341 -1.07611 1.83696 -0.000711 -0.742428 
1.76023 -0.012619 -0.870546 1.95668 0.02207 -0.452686 1.9108 0.0128 -0.597015 
1.99424 0.053379 -0.167915 1.98566 0.033878 -0.32073 0.105398 -0.057381 -0.85571 
0.260778 -0.023738 -0.88561 0.282378 -0.06682 -0.89094 0.516137 -0.069589 -0.98772 
0.578157 -0.033989 -1.02679 0.675334 -0.056009 -1.08879 0.766523 -0.035108 -1.1409 
0.8689 -0.003781 -1.23284 0.932167 -0.028101 -1.20265 1.07506 -0.027651 -1.22466 
1.11908 -0.002019 -1.21608 1.24933 -0.015621 -1.19843 1.37445 -0.001532 -1.14382 
1.39276 0.026138 -1.13893 1.48309 0.0063 -1.08619 1.60294 0.009602 -0.998575 
1.61317 0.037939 -0.972679 1.73022 0.02547 -0.863806 1.80699 0.042 -0.737803 
1.80599 0.07176 -0.736973 1.86825 0.051901 -0.623756 1.92338 0.057371 -0.480197 
1.91714 0.083182 -0.458114 1.9653 0.07332 -0.295301 1.96844 0.089069 -0.142855 
1.96491 0.112881 -0.147309 1.96301 0.076821 0.175753 1.99048 0.06768 0.023151 
1.85667 0.104049 0.443513 1.92564 0.087429 0.305187 1.66898 0.1257 0.715165 
1.76647 0.115848 0.597371 1.43398 0.147539 0.883813 1.57466 0.13476 0.801931 
1.12143 0.167478 1.01769 1.2663 0.15752 0.966491 0.779996 0.177999 0.958109 
0.979193 0.174419 1.03198 0.50321 0.21097 1.00069 0.638314 0.184591 0.936099 
0.20017 0.25456 1.21187 0.288096 0.229491 1.01241 1.96468 0.098219 -0.013761 
1.94306 0.103409 0.136428 1.92645 0.12304 0.152661 1.88948 0.116739 0.316486 
1.81354 0.128509 0.456761 1.81492 0.144819 0.454185 1.73199 0.13459 0.587573 
1.60715 0.142401 0.720343 1.61382 0.15126 0.699694 1.48072 0.151409 0.810942 
1.36887 0.15597 0.868145 1.38583 0.160181 0.871996 1.25559 0.1595 0.913574 
1.08383 0.16448 0.945988 1.10917 0.16345 0.944569 0.903582 0.16892 0.922397 
0.716558 0.1724 0.862421 0.851099 0.16302 0.972493 0.612169 0.1754 0.808897 
0.493461 0.17268 0.72841 0.517264 0.18922 0.74307 0.294764 0.175162 0.64503 
0.182018 0.18725 0.61723 0.246565 0.14852 0.851595 0.211929 -0.112311 1.12602 
0.408937 -0.101808 1.05925 0.529654 -0.146458 0.884628 0.64082 -0.125759 0.90766 
0.776973 -0.143974 0.769517 0.95172 -0.153711 0.678846 1.12004 -0.169486 0.61409 
1.25539 -0.170456 0.626558 1.40198 -0.172157 0.65761 1.55095 -0.17771 0.734222 
1.67777 -0.186469 0.814454 1.76196 -0.192224 0.911853 1.84861 -0.198932 1.02752 
1.91686 -0.209413 1.18475 1.96932 -0.215348 1.33138 1.98476 -0.224384 1.46497 
1.99539 -0.234076 1.61351 1.97143 -0.24674 1.79188 1.94388 -0.248528 1.9524 
1.89074 -0.258592 2.08163 1.82767 -0.269011 2.22011 1.71908 -0.282013 2.36979 
1.62093 -0.279801 2.50079 1.51107 -0.289512 2.59012 1.38899 -0.29825 2.68097 
1.2173 -0.306125 2.76081 1.09524 -0.29505 2.82173 0.962538 -0.314485 2.82255 
0.782547 -0.320481 2.82302 0.616489 -0.309159 2.79829 0.514801 -0.292917 2.75242 
0.374815 -0.289679 2.67881 0.191179 -0.285925 2.61992 0.175364 -0.043048 -1.1161 
0.371752 -0.040729 -1.16955 0.520796 -0.045811 -1.22664 0.641122 -0.053341 -1.20828 
0.814749 -0.050628 -1.22226 0.980933 -0.0416 -1.24707 1.13446 -0.041981 -1.25989 
1.25732 -0.031491 -1.21928 1.37557 -0.02092 -1.16829 1.52503 -0.01379 -1.0821 
1.66333 -0.00688 -0.96815 1.74529 0.006448 -0.861507 1.83054 0.01994 -0.739799 
1.90087 0.036831 -0.576741 1.95576 0.04151 -0.430456 1.98091 0.05521 -0.268133 
1.98617 0.07469 -0.118699 1.97012 0.087318 0.043409 1.94904 0.092001 0.193624 
1.89173 0.103849 0.348263 1.82149 0.118398 0.480773 1.7453 0.12549 0.590606 
1.66733 0.131411 0.692454 1.52786 0.143579 0.80406 1.36982 0.15336 0.888954 
1.21564 0.15996 0.941223 1.10254 0.165369 0.983036 0.934914 0.17084 0.958104 
0.761504 0.17426 0.889507 0.63887 0.174169 0.82893 0.547949 0.16267 0.7569 
0.392315 0.169121 0.752387 0.194826 0.17926 0.740048 2.16021 -0.269296 0.237275 
2.12975 0.025428 1.94593 2.11295 -0.23752 -0.52725 2.09962 0.04514 1.07404 

thickness 1 687 float
0.907029 0.907029 0.907029 0.907029 0.907029 0.907029 0.907029 0.907029 0.907029 
0.907029 0.907029 0.907029 0.907029 0.907029 0.907029 0.907029 0.907029 0.907029 
0.907029 0.907029 0.907029 0.907029 0.907029 0.907029 0.907029 0.907029 0.907029 
0.907029 0.907029 0.907029 0.907029 0.907029 0.907029 0.907029 0.907029 0.907029 
0.907029 0.907029 0.907029 0.907029 0.907029 0.907029 0.907029 0.907029 0.907029 
0.907029 0.907029 0.907029 0.907029 0.907029 0.907029 0.907029 0.907029 0.907029 
0.907029 0.907029 0.907029 0.907029 0.907029 0.907029 0.907029 0.907029 0.907029 
0.907029 0.907029 0.907029 0.907029 0.907029 0.907029 0.907029 0.907029 0.907029 
0.907029 0.907029 0.907029 0.907029 0.907029 0.907029 0.907029 0.907029 0.907029 
0.907029 0.907029 0.907029 0.907029 0.907029 0.907029 0.907029 0.907029 0.907029 
0.907029 0.907029 0.907029 0.907029 0.907029 0.907029 0.907029 0.907029 0.907029 
0.907029 0.907029 0.907029 0.907029 0.907029 0.907029 0.907029 0.907029 0.907029 
0.907029 0.907029 0.907029 0.907029 0.907029 0.907029 0.907029 0.907029 0.907029 
0.907029 0.907029 0.907029 0.907029 0.907029 0.907029 0.907029 0.907029 0.907029 
0.907029 0.907029 0.907029 0.907029 0.907029 0.907029 0.907029 0.907029 0.907029 
0.907029 0.907029 0.907029 0.907029 0.907029 0.907029 0.907029 0.907029 0.907029 
0.907029 0.907029 0.907029 0.907029 0.907029 0.907029 0.907029 0.907029 0.907029 
0.907029 0.907029 0.907029 0.907029 0.907029 0.907029 0.907029 0.907029 0.907029 
0.907029 0.907029 0.907029 0.907029 0.907029 0.907029 0.907029 0.907029 0.907029 
0.907029 0.907029 0.907029 0.907029 0.907029 0.80948 0.875443 0.769465 0.808721 
0.772796 0.820377 0.798928 0.809309 0.80064 0.851399 0.817093 0.865846 0.823208 
0.872464 0.830233 0.877147 0.82657 0.872775 0.83961 0.845967 0.785245 0.691274 
0.631992 0.599875 0.574135 0.54799 0.544367 0.545674 0.553366 0.57146 0.594908 
0.595253 0.597441 0.629664 0.660048 0.715768 0.789541 0.845232 0.800866 0.843095 
0.800566 0.847791 0.821277 0.824529 0.807314 0.852951 0.812864 0.852149 0.806404 
0.821724 0.81967 0.815001 0.811896 0.839973 0.809744 0.760627 0.672835 0.620753 
0.608355 0.583605 0.562046 0.559586 0.552306 0.550812 0.558917 0.575787 0.597173 
0.609563 0.637744 0.655703 0.700327 0.761222 0.612648 0.620625 0.625874 0.558031 
0.566535 0.570523 0.569612 0.580672 0.583362 0.599543 0.605142 0.598198 0.640728 
0.611693 0.593896 0.588799 0.597663 0.585413 0.626603 0.613864 0.561977 0.572353 
0.590563 0.59746 0.587047 0.574201 0.565568 0.549709 0.550512 0.563469 0.594429 
0.577968 0.56427 0.561916 0.589791 0.599764 0.602925 0.68581 0.648902 0.69565 
0.716954 0.661993 0.711295 0.731166 0.660224 0.642594 0.66692 0.658328 0.639596 
0.653271 0.607197 0.623844 0.638106 0.62124 0.61045 0.719475 0.731481 0.648908 
0.710043 0.672127 0.634127 0.61338 0.626391 0.606738 0.608101 0.591327 0.583566 
0.567504 0.556214 0.568237 0.598355 0.581695 0.611262 0.601313 0.613866 0.641922 
0.62406 0.630914 0.65088 0.632509 0.634271 0.657551 0.691006 0.720966 0.701464 
0.729132 0.712503 0.623266 0.614903 0.601183 0.612933 0.638438 0.642467 0.65667 
0.636281 0.629043 0.646375 0.725054 0.714154 0.697772 0.706414 0.722918 0.744609 
0.734648 0.758638 0.769439 0.758744 0.754942 0.78239 0.774472 0.641871 0.677232 
0.6603 0.683373 0.691576 0.659029 0.671018 0.638525 0.646537 0.61242 0.629587 
0.664291 0.667292 0.667525 0.651385 0.642669 0.629239 0.621771 0.793237 0.77186 
0.79657 0.781331 0.797662 0.769959 0.79262 0.71938 0.620738 0.627324 0.610702 
0.612984 0.605343 0.607817 0.59625 0.598595 0.609168 0.603184 0.596117 0.595731 
0.589583 0.588382 0.569043 0.560677 0.568811 0.603132 0.581212 0.61499 0.609512 
0.613862 0.611328 0.619308 0.614056 0.608599 0.62419 0.631471 0.638562 0.635278 
0.630973 0.63059 0.629362 0.632762 0.716322 0.767883 0.759792 0.780535 0.762651 
0.759304 0.767175 0.77139 0.783825 0.626593 0.620828 0.638775 0.630083 0.637352 
0.637917 0.599969 0.611242 0.633536 0.638274 0.64238 0.649137 0.653683 0.646383 
0.642683 0.633746 0.760625 0.784448 0.784354 0.76889 0.754355 0.779011 0.744995 
0.769353 0.631935 0.609634 0.659601 0.704162 0.66406 0.617185 0.707959 0.694011 
0.713355 0.691679 0.710739 0.714395 0.693755 0.702257 0.676013 0.658629 0.675645 
0.684652 0.657794 0.665119 0.644307 0.633064 0.643232 0.650466 0.63057 0.635558 
0.61994 0.624695 0.6538 0.67748 0.698027 0.695552 0.689377 0.686162 0.680128 
0.671598 0.662821 0.656404 0.650074 0.642215 0.635337 0.630096 0.625437 0.622042 
0.615292 0.620321 0.625526 0.612676 0.615301 0.60899 0.607221 0.607264 0.609963 
0.605579 0.605485 0.606374 0.606468 0.605564 0.605181 0.608497 0.607302 0.600851 
0.593736 0.601839 0.607803 0.582784 0.585445 0.619256 0.613912 0.61027 0.607466 
0.603937 0.601287 0.600468 0.600443 0.599175 0.598274 0.59935 0.603299 0.602967 
0.588115 0.571903 0.563816 0.576012 0.598643 0.585028 0.623066 0.612411 0.623111 
0.626278 0.623662 0.624761 0.61808 0.619161 0.618636 0.618298 0.61827 0.618254 
0.621859 0.619079 0.585025 0.59892 0.590971 0.606817 0.627188 0.644824 0.660587 
0.647878 0.650049 0.644445 0.643973 0.6369 0.634361 0.634802 0.630262 0.626889 
0.628981 0.624681 0.624295 0.626501 0.623254 0.623077 0.624967 0.623869 0.625594 
0.62765 0.624583 0.623286 0.630531 0.626393 0.635899 0.633329 0.645306 0.638867 
0.650055 0.648784 0.662341 0.652267 0.625422 0.655394 0.603956 0.610837 0.626571 
0.628306 0.62986 0.631273 0.635 0.635958 0.637897 0.642851 0.642941 0.647632 
0.652068 0.650762 0.65611 0.661878 0.660922 0.667722 0.669532 0.664399 0.663912 
0.632047 0.643852 0.604241 0.608216 0.630205 0.613364 0.63491 0.677024 0.69436 
0.712305 0.711461 0.700597 0.696404 0.688259 0.678084 0.667419 0.661141 0.654022 
0.645473 0.63759 0.632638 0.627613 0.621571 0.615886 0.612632 0.609789 0.606878 