TITLE = "Cylindrical Flow Velocity Data"
Variables="X","Y","Z","VX","VY", "VZ"
Zone I=    17, J=    17, K=    17, F=POINT
     0.000     0.000     0.000    0.00000        0.00000       0.843745E-05
     0.063     0.000     0.000    0.00000       0.625000E-01    0.00000    
     0.125     0.000     0.000    0.00000       0.125000        0.00000    
     0.188     0.000     0.000    0.00000       0.187500        0.00000    
     0.250     0.000     0.000    0.00000       0.250000        0.00000    
     0.313     0.000     0.000    0.00000       0.312500        0.00000    
     0.375     0.000     0.000    0.00000       0.375000        0.00000    
     0.438     0.000     0.000    0.00000       0.437500        0.00000    
     0.500     0.000     0.000    0.00000       0.500000        0.00000    
     0.563     0.000     0.000    0.00000       0.562500        0.00000    
     0.625     0.000     0.000    0.00000       0.625000        0.00000    
     0.688     0.000     0.000    0.00000       0.687500        0.00000    
     0.750     0.000     0.000    0.00000       0.750000        0.00000    
     0.813     0.000     0.000    0.00000       0.812500        0.00000    
     0.875     0.000     0.000    0.00000       0.875000        0.00000    
     0.938     0.000     0.000    0.00000       0.937500        0.00000    
     1.000     0.000     0.000    0.00000        1.00000        0.00000    
     0.000     0.000     0.063    0.00000        0.00000      -0.340990E-03
     0.063     0.000     0.063   0.220454E-03   0.260842E-01  -0.338923E-03
     0.125     0.000     0.063   0.405003E-03   0.539423E-01  -0.325334E-03
     0.188     0.000     0.063   0.660855E-03   0.816067E-01  -0.322266E-03
     0.250     0.000     0.063   0.858455E-03   0.109064      -0.318205E-03
     0.313     0.000     0.063   0.111440E-02   0.136705      -0.318957E-03
     0.375     0.000     0.063   0.130269E-02   0.164040      -0.315820E-03
     0.438     0.000     0.063   0.154903E-02   0.191748      -0.306302E-03
     0.500     0.000     0.063   0.173916E-02   0.219146      -0.295588E-03
     0.563     0.000     0.063   0.199860E-02   0.247197      -0.304407E-03
     0.625     0.000     0.063   0.207256E-02   0.275374      -0.293779E-03
     0.688     0.000     0.063   0.219454E-02   0.305419      -0.202208E-03
     0.750     0.000     0.063   0.239701E-02   0.338800      -0.783229E-04
     0.813     0.000     0.063   0.256221E-02   0.382108       0.207215E-04
     0.875     0.000     0.063   0.133242E-02   0.453089       0.218690E-03
     0.938     0.000     0.063   0.939825E-03   0.637615       0.939825E-03
     1.000     0.000     0.063    0.00000        1.00000        0.00000    
     0.000     0.000     0.125    0.00000        0.00000      -0.580150E-03
     0.063     0.000     0.125   0.100789E-03   0.111419E-01  -0.580235E-03
     0.125     0.000     0.125   0.169223E-03   0.211677E-01  -0.566165E-03
     0.188     0.000     0.125   0.255134E-03   0.319153E-01  -0.565444E-03
     0.250     0.000     0.125   0.298091E-03   0.415021E-01  -0.559384E-03
     0.313     0.000     0.125   0.395351E-03   0.525280E-01  -0.557860E-03
     0.375     0.000     0.125   0.404651E-03   0.619975E-01  -0.548929E-03
     0.438     0.000     0.125   0.517155E-03   0.733254E-01  -0.537850E-03
     0.500     0.000     0.125   0.505294E-03   0.828922E-01  -0.511000E-03
     0.563     0.000     0.125   0.615854E-03   0.950146E-01  -0.478382E-03
     0.625     0.000     0.125   0.459711E-03   0.106001      -0.425641E-03
     0.688     0.000     0.125   0.515303E-03   0.121950      -0.299659E-03
     0.750     0.000     0.125   0.524321E-03   0.142392      -0.532267E-04
     0.813     0.000     0.125   0.407114E-03   0.180558       0.339255E-03
     0.875     0.000     0.125  -0.124596E-02   0.258753       0.779898E-03
     0.938     0.000     0.125  -0.224332E-03   0.504146       0.116391E-02
     1.000     0.000     0.125    0.00000        1.00000        0.00000    
     0.000     0.000     0.188    0.00000        0.00000      -0.672798E-03
     0.063     0.000     0.188  -0.308704E-05   0.422312E-02  -0.684332E-03
     0.125     0.000     0.188  -0.188964E-04   0.876373E-02  -0.691226E-03
     0.188     0.000     0.188  -0.347829E-04   0.130442E-01  -0.696977E-03
     0.250     0.000     0.188  -0.564431E-04   0.173315E-01  -0.698125E-03
     0.313     0.000     0.188  -0.759197E-04   0.216244E-01  -0.694126E-03
     0.375     0.000     0.188  -0.111476E-03   0.259239E-01  -0.683669E-03
     0.438     0.000     0.188  -0.133110E-03   0.303792E-01  -0.665506E-03
     0.500     0.000     0.188  -0.163434E-03   0.350076E-01  -0.633987E-03
     0.563     0.000     0.188  -0.206327E-03   0.403148E-01  -0.578092E-03
     0.625     0.000     0.188  -0.347021E-03   0.469760E-01  -0.490139E-03
     0.688     0.000     0.188  -0.413974E-03   0.571571E-01  -0.328924E-03
     0.750     0.000     0.188  -0.253337E-03   0.758854E-01  -0.721306E-04
     0.813     0.000     0.188  -0.377743E-03   0.115159       0.393140E-03
     0.875     0.000     0.188  -0.140020E-02   0.208105       0.882513E-03
     0.938     0.000     0.188  -0.273154E-03   0.470803       0.127224E-02
     1.000     0.000     0.188    0.00000        1.00000        0.00000    
     0.000     0.000     0.250    0.00000        0.00000      -0.605478E-03
     0.063     0.000     0.250  -0.538747E-04   0.185280E-02  -0.611833E-03
     0.125     0.000     0.250  -0.114977E-03   0.361398E-02  -0.617835E-03
     0.188     0.000     0.250  -0.171530E-03   0.541647E-02  -0.620311E-03
     0.250     0.000     0.250  -0.229551E-03   0.721150E-02  -0.617872E-03
     0.313     0.000     0.250  -0.289087E-03   0.900152E-02  -0.611631E-03
     0.375     0.000     0.250  -0.354586E-03   0.109362E-01  -0.595630E-03
     0.438     0.000     0.250  -0.418629E-03   0.128485E-01  -0.572496E-03
     0.500     0.000     0.250  -0.466776E-03   0.152850E-01  -0.532463E-03
     0.563     0.000     0.250  -0.541750E-03   0.181239E-01  -0.469071E-03
     0.625     0.000     0.250  -0.673469E-03   0.230792E-01  -0.364041E-03
     0.688     0.000     0.250  -0.746435E-03   0.314546E-01  -0.199630E-03
     0.750     0.000     0.250  -0.524400E-03   0.504264E-01   0.444673E-04
     0.813     0.000     0.250  -0.523250E-03   0.902427E-01   0.369608E-03
     0.875     0.000     0.250  -0.159925E-02   0.187119       0.710583E-03
     0.938     0.000     0.250   0.680712E-04   0.459023       0.683127E-03
     1.000     0.000     0.250    0.00000        1.00000        0.00000    
     0.000     0.000     0.313    0.00000        0.00000      -0.490243E-03
     0.063     0.000     0.313  -0.755358E-04   0.722243E-03  -0.484541E-03
     0.125     0.000     0.313  -0.152891E-03   0.150761E-02  -0.483003E-03
     0.188     0.000     0.313  -0.225404E-03   0.225129E-02  -0.477508E-03
     0.250     0.000     0.313  -0.299075E-03   0.303071E-02  -0.470538E-03
     0.313     0.000     0.313  -0.372513E-03   0.379699E-02  -0.459183E-03
     0.375     0.000     0.313  -0.449218E-03   0.466905E-02  -0.442815E-03
     0.438     0.000     0.313  -0.522045E-03   0.562206E-02  -0.415883E-03
     0.500     0.000     0.313  -0.571841E-03   0.697589E-02  -0.376762E-03
     0.563     0.000     0.313  -0.640759E-03   0.900003E-02  -0.312380E-03
     0.625     0.000     0.313  -0.748402E-03   0.129602E-01  -0.218961E-03
     0.688     0.000     0.313  -0.781221E-03   0.209783E-01  -0.680306E-04
     0.750     0.000     0.313  -0.481202E-03   0.393710E-01   0.126539E-03
     0.813     0.000     0.313  -0.403697E-03   0.809459E-01   0.376640E-03
     0.875     0.000     0.313  -0.133178E-02   0.181202       0.574205E-03
     0.938     0.000     0.313   0.138624E-03   0.455180       0.472371E-03
     1.000     0.000     0.313    0.00000        1.00000        0.00000    
     0.000     0.000     0.375    0.00000        0.00000      -0.319251E-03
     0.063     0.000     0.375  -0.811674E-04   0.328451E-03  -0.323321E-03
     0.125     0.000     0.375  -0.167193E-03   0.643631E-03  -0.322206E-03
     0.188     0.000     0.375  -0.243673E-03   0.969260E-03  -0.319735E-03
     0.250     0.000     0.375  -0.323841E-03   0.130759E-02  -0.313122E-03
     0.313     0.000     0.375  -0.400397E-03   0.166603E-02  -0.305017E-03
     0.375     0.000     0.375  -0.479823E-03   0.211123E-02  -0.291469E-03
     0.438     0.000     0.375  -0.549943E-03   0.267016E-02  -0.271582E-03
     0.500     0.000     0.375  -0.595360E-03   0.363726E-02  -0.240174E-03
     0.563     0.000     0.375  -0.648137E-03   0.532324E-02  -0.193089E-03
     0.625     0.000     0.375  -0.735562E-03   0.907278E-02  -0.122586E-03
     0.688     0.000     0.375  -0.728463E-03   0.169635E-01  -0.253071E-04
     0.750     0.000     0.375  -0.414963E-03   0.358765E-01   0.102894E-03
     0.813     0.000     0.375  -0.304457E-03   0.771205E-01   0.225301E-03
     0.875     0.000     0.375  -0.143522E-02   0.176731       0.334345E-03
     0.938     0.000     0.375   0.104553E-03   0.453412       0.292520E-03
     1.000     0.000     0.375    0.00000        1.00000        0.00000    
     0.000     0.000     0.438    0.00000        0.00000      -0.168558E-03
     0.063     0.000     0.438  -0.825453E-04   0.148262E-03  -0.161693E-03
     0.125     0.000     0.438  -0.170291E-03   0.311266E-03  -0.160371E-03
     0.188     0.000     0.438  -0.249571E-03   0.467798E-03  -0.157561E-03
     0.250     0.000     0.438  -0.330360E-03   0.644321E-03  -0.154894E-03
     0.313     0.000     0.438  -0.408041E-03   0.839042E-03  -0.149805E-03
     0.375     0.000     0.438  -0.485869E-03   0.111294E-02  -0.142870E-03
     0.438     0.000     0.438  -0.552786E-03   0.152211E-02  -0.130842E-03
     0.500     0.000     0.438  -0.590487E-03   0.230917E-02  -0.113775E-03
     0.563     0.000     0.438  -0.633257E-03   0.387946E-02  -0.860468E-04
     0.625     0.000     0.438  -0.704827E-03   0.742212E-02  -0.483528E-04
     0.688     0.000     0.438  -0.678454E-03   0.152915E-01   0.455795E-05
     0.750     0.000     0.438  -0.345044E-03   0.337712E-01   0.652875E-04
     0.813     0.000     0.438  -0.211290E-03   0.759779E-01   0.112823E-03
     0.875     0.000     0.438  -0.118440E-02   0.177385       0.147580E-03
     0.938     0.000     0.438   0.142737E-03   0.453150       0.119260E-03
     1.000     0.000     0.438    0.00000        1.00000        0.00000    
     0.000     0.000     0.500    0.00000        0.00000       0.207668E-04
     0.063     0.000     0.500  -0.824044E-04   0.121857E-03   0.145531E-04
     0.125     0.000     0.500  -0.171746E-03   0.240644E-03   0.127353E-04
     0.188     0.000     0.500  -0.251152E-03   0.348448E-03   0.115736E-04
     0.250     0.000     0.500  -0.332944E-03   0.485846E-03   0.107641E-04
     0.313     0.000     0.500  -0.409472E-03   0.632236E-03   0.949378E-05
     0.375     0.000     0.500  -0.487638E-03   0.872528E-03   0.879249E-05
     0.438     0.000     0.500  -0.551205E-03   0.123437E-02   0.746932E-05
     0.500     0.000     0.500  -0.589121E-03   0.200495E-02   0.658481E-05
     0.563     0.000     0.500  -0.623009E-03   0.353566E-02   0.386470E-05
     0.625     0.000     0.500  -0.694097E-03   0.714360E-02   0.227888E-05
     0.688     0.000     0.500  -0.656905E-03   0.150023E-01  -0.528594E-05
     0.750     0.000     0.500  -0.340855E-03   0.339509E-01  -0.902774E-05
     0.813     0.000     0.500  -0.229793E-03   0.754439E-01  -0.231622E-04
     0.875     0.000     0.500  -0.136980E-02   0.175424      -0.196198E-04
     0.938     0.000     0.500   0.115991E-03   0.452751      -0.140915E-04
     1.000     0.000     0.500    0.00000        1.00000        0.00000    
     0.000     0.000     0.563    0.00000        0.00000       0.177907E-03
     0.063     0.000     0.563  -0.843101E-04   0.154482E-03   0.180903E-03
     0.125     0.000     0.563  -0.170551E-03   0.325441E-03   0.177337E-03
     0.188     0.000     0.563  -0.250268E-03   0.476133E-03   0.176285E-03
     0.250     0.000     0.563  -0.332314E-03   0.656903E-03   0.173071E-03
     0.313     0.000     0.563  -0.409522E-03   0.845230E-03   0.167985E-03
     0.375     0.000     0.563  -0.488315E-03   0.112297E-02   0.160353E-03
     0.438     0.000     0.563  -0.553574E-03   0.152570E-02   0.148919E-03
     0.500     0.000     0.563  -0.594671E-03   0.231484E-02   0.132025E-03
     0.563     0.000     0.563  -0.633985E-03   0.387848E-02   0.104891E-03
     0.625     0.000     0.563  -0.713876E-03   0.741891E-02   0.684838E-04
     0.688     0.000     0.563  -0.683533E-03   0.152840E-01   0.133124E-04
     0.750     0.000     0.563  -0.365074E-03   0.337554E-01  -0.522442E-04
     0.813     0.000     0.563  -0.235247E-03   0.759692E-01  -0.128041E-03
     0.875     0.000     0.563  -0.117852E-02   0.177367      -0.172932E-03
     0.938     0.000     0.563   0.148934E-03   0.453160      -0.147526E-03
     1.000     0.000     0.563    0.00000        1.00000        0.00000    
     0.000     0.000     0.625    0.00000        0.00000       0.341482E-03
     0.063     0.000     0.625  -0.835679E-04   0.374000E-03   0.341447E-03
     0.125     0.000     0.625  -0.167168E-03   0.738582E-03   0.337908E-03
     0.188     0.000     0.625  -0.244562E-03   0.101195E-02   0.334731E-03
     0.250     0.000     0.625  -0.325867E-03   0.139401E-02   0.329154E-03
     0.313     0.000     0.625  -0.403083E-03   0.170033E-02   0.319376E-03
     0.375     0.000     0.625  -0.482882E-03   0.218963E-02   0.305888E-03
     0.438     0.000     0.625  -0.550967E-03   0.269676E-02   0.284889E-03
     0.500     0.000     0.625  -0.600501E-03   0.370076E-02   0.252352E-03
     0.563     0.000     0.625  -0.647805E-03   0.533559E-02   0.201991E-03
     0.625     0.000     0.625  -0.743890E-03   0.909907E-02   0.132491E-03
     0.688     0.000     0.625  -0.733054E-03   0.169520E-01   0.366444E-04
     0.750     0.000     0.625  -0.451014E-03   0.358286E-01  -0.943930E-04
     0.813     0.000     0.625  -0.346747E-03   0.770951E-01  -0.233770E-03
     0.875     0.000     0.625  -0.144324E-02   0.176610      -0.323546E-03
     0.938     0.000     0.625   0.996203E-04   0.453446      -0.318011E-03
     1.000     0.000     0.625    0.00000        1.00000        0.00000    
     0.000     0.000     0.688    0.00000        0.00000       0.463939E-03
     0.063     0.000     0.688  -0.679838E-04   0.720275E-03   0.483854E-03
     0.125     0.000     0.688  -0.154085E-03   0.153324E-02   0.492502E-03
     0.188     0.000     0.688  -0.227511E-03   0.222497E-02   0.492151E-03
     0.250     0.000     0.688  -0.306388E-03   0.302782E-02   0.485612E-03
     0.313     0.000     0.688  -0.379831E-03   0.375179E-02   0.474079E-03
     0.375     0.000     0.688  -0.457689E-03   0.465212E-02   0.456778E-03
     0.438     0.000     0.688  -0.526780E-03   0.556556E-02   0.431446E-03
     0.500     0.000     0.688  -0.586627E-03   0.694260E-02   0.391866E-03
     0.563     0.000     0.688  -0.645515E-03   0.892836E-02   0.325918E-03
     0.625     0.000     0.688  -0.759953E-03   0.128957E-01   0.235600E-03
     0.688     0.000     0.688  -0.773530E-03   0.209002E-01   0.103180E-03
     0.750     0.000     0.688  -0.529197E-03   0.392850E-01  -0.777960E-04
     0.813     0.000     0.688  -0.422817E-03   0.809380E-01  -0.317296E-03
     0.875     0.000     0.688  -0.135192E-02   0.181151      -0.503269E-03
     0.938     0.000     0.688   0.618904E-04   0.455361      -0.523081E-03
     1.000     0.000     0.688    0.00000        1.00000        0.00000    
     0.000     0.000     0.750    0.00000        0.00000       0.684475E-03
     0.063     0.000     0.750  -0.422657E-04   0.195827E-02   0.675043E-03
     0.125     0.000     0.750  -0.116791E-03   0.394236E-02   0.674168E-03
     0.188     0.000     0.750  -0.180063E-03   0.541705E-02   0.669094E-03
     0.250     0.000     0.750  -0.244114E-03   0.745613E-02   0.658281E-03
     0.313     0.000     0.750  -0.304963E-03   0.895240E-02   0.646560E-03
     0.375     0.000     0.750  -0.367806E-03   0.111513E-01   0.627168E-03
     0.438     0.000     0.750  -0.430004E-03   0.127752E-01   0.603037E-03
     0.500     0.000     0.750  -0.488210E-03   0.154607E-01   0.557389E-03
     0.563     0.000     0.750  -0.554450E-03   0.180145E-01   0.486862E-03
     0.625     0.000     0.750  -0.681847E-03   0.231439E-01   0.383645E-03
     0.688     0.000     0.750  -0.728290E-03   0.313069E-01   0.220749E-03
     0.750     0.000     0.750  -0.585676E-03   0.502920E-01  -0.568289E-04
     0.813     0.000     0.750  -0.529339E-03   0.902425E-01  -0.467458E-03
     0.875     0.000     0.750  -0.171847E-02   0.186610      -0.844061E-03
     0.938     0.000     0.750  -0.472993E-04   0.459580      -0.103560E-02
     1.000     0.000     0.750    0.00000        1.00000        0.00000    
     0.000     0.000     0.813    0.00000        0.00000       0.838641E-03
     0.063     0.000     0.813  -0.376224E-04   0.382566E-02   0.809657E-03
     0.125     0.000     0.813  -0.701282E-04   0.810815E-02   0.779998E-03
     0.188     0.000     0.813  -0.766624E-04   0.122825E-01   0.765538E-03
     0.250     0.000     0.813  -0.114445E-03   0.165173E-01   0.752335E-03
     0.313     0.000     0.813  -0.117160E-03   0.207832E-01   0.739320E-03
     0.375     0.000     0.813  -0.161271E-03   0.250649E-01   0.722314E-03
     0.438     0.000     0.813  -0.167204E-03   0.295088E-01   0.701018E-03
     0.500     0.000     0.813  -0.230531E-03   0.341158E-01   0.665004E-03
     0.563     0.000     0.813  -0.248672E-03   0.394221E-01   0.598514E-03
     0.625     0.000     0.813  -0.385364E-03   0.460333E-01   0.504805E-03
     0.688     0.000     0.813  -0.421278E-03   0.563289E-01   0.357107E-03
     0.750     0.000     0.813  -0.421264E-03   0.750701E-01   0.940668E-04
     0.813     0.000     0.813  -0.407074E-03   0.115405      -0.407091E-03
     0.875     0.000     0.813  -0.156316E-02   0.209105      -0.933252E-03
     0.938     0.000     0.813  -0.161551E-03   0.473294      -0.124434E-02
     1.000     0.000     0.813    0.00000        1.00000        0.00000    
     0.000     0.000     0.875    0.00000        0.00000       0.596767E-03
     0.063     0.000     0.875   0.764187E-05   0.103808E-01   0.622408E-03
     0.125     0.000     0.875   0.258979E-04   0.205940E-01   0.603321E-03
     0.188     0.000     0.875   0.175304E-03   0.304468E-01   0.596529E-03
     0.250     0.000     0.875   0.169347E-03   0.407424E-01   0.585270E-03
     0.313     0.000     0.875   0.327904E-03   0.509520E-01   0.581349E-03
     0.375     0.000     0.875   0.289129E-03   0.611851E-01   0.568811E-03
     0.438     0.000     0.875   0.462742E-03   0.717099E-01   0.558774E-03
     0.500     0.000     0.875   0.376993E-03   0.820210E-01   0.533367E-03
     0.563     0.000     0.875   0.546506E-03   0.933527E-01   0.503518E-03
     0.625     0.000     0.875   0.382237E-03   0.104935       0.458815E-03
     0.688     0.000     0.875   0.521828E-03   0.120258       0.402730E-03
     0.750     0.000     0.875   0.368409E-03   0.140740       0.192820E-03
     0.813     0.000     0.875   0.424348E-03   0.180755      -0.217134E-03
     0.875     0.000     0.875  -0.112081E-02   0.260807      -0.864376E-03
     0.938     0.000     0.875   0.207924E-03   0.512185      -0.130708E-02
     1.000     0.000     0.875    0.00000        1.00000        0.00000    
     0.000     0.000     0.938    0.00000        0.00000       0.252726E-03
     0.063     0.000     0.938   0.310710E-03   0.262573E-01   0.283466E-03
     0.125     0.000     0.938   0.528871E-03   0.543800E-01   0.318624E-03
     0.188     0.000     0.938   0.761977E-03   0.816986E-01   0.320142E-03
     0.250     0.000     0.938   0.100197E-02   0.109446       0.318365E-03
     0.313     0.000     0.938   0.122682E-02   0.136759       0.316800E-03
     0.375     0.000     0.938   0.145776E-02   0.164404       0.314449E-03
     0.438     0.000     0.938   0.167892E-02   0.191791       0.310325E-03
     0.500     0.000     0.938   0.188616E-02   0.219502       0.302306E-03
     0.563     0.000     0.938   0.209420E-02   0.247258       0.288293E-03
     0.625     0.000     0.938   0.228561E-02   0.275758       0.275840E-03
     0.688     0.000     0.938   0.243636E-02   0.305757       0.288431E-03
     0.750     0.000     0.938   0.250883E-02   0.339875       0.228889E-03
     0.813     0.000     0.938   0.246959E-02   0.385646      -0.393792E-04
     0.875     0.000     0.938   0.106018E-02   0.463099      -0.421463E-03
     0.938     0.000     0.938   0.124207E-02   0.641068      -0.925437E-03
     1.000     0.000     0.938    0.00000        1.00000        0.00000    
     0.000     0.000     1.000    0.00000        0.00000       0.653961E-04
     0.063     0.000     1.000    0.00000       0.625000E-01    0.00000    
     0.125     0.000     1.000    0.00000       0.125000        0.00000    
     0.188     0.000     1.000    0.00000       0.187500        0.00000    
     0.250     0.000     1.000    0.00000       0.250000        0.00000    
     0.313     0.000     1.000    0.00000       0.312500        0.00000    
     0.375     0.000     1.000    0.00000       0.375000        0.00000    
     0.438     0.000     1.000    0.00000       0.437500        0.00000    
     0.500     0.000     1.000    0.00000       0.500000        0.00000    
     0.563     0.000     1.000    0.00000       0.562500        0.00000    
     0.625     0.000     1.000    0.00000       0.625000        0.00000    
     0.688     0.000     1.000    0.00000       0.687500        0.00000    
     0.750     0.000     1.000    0.00000       0.750000        0.00000    
     0.813     0.000     1.000    0.00000       0.812500        0.00000    
     0.875     0.000     1.000    0.00000       0.875000        0.00000    
     0.938     0.000     1.000    0.00000       0.937500        0.00000    
     1.000     0.000     1.000    0.00000        1.00000        0.00000    
     0.000     0.000     0.000    0.00000        0.00000       0.843745E-05
     0.058     0.024     0.000  -0.239177E-01   0.577425E-01    0.00000    
     0.115     0.048     0.000  -0.478354E-01   0.115485        0.00000    
     0.173     0.072     0.000  -0.717531E-01   0.173227        0.00000    
     0.231     0.096     0.000  -0.956709E-01   0.230970        0.00000    
     0.289     0.120     0.000  -0.119589       0.288712        0.00000    
     0.346     0.144     0.000  -0.143506       0.346455        0.00000    
     0.404     0.167     0.000  -0.167424       0.404197        0.00000    
     0.462     0.191     0.000  -0.191342       0.461940        0.00000    
     0.520     0.215     0.000  -0.215259       0.519682        0.00000    
     0.577     0.239     0.000  -0.239177       0.577425        0.00000    
     0.635     0.263     0.000  -0.263095       0.635167        0.00000    
     0.693     0.287     0.000  -0.287013       0.692910        0.00000    
     0.751     0.311     0.000  -0.310930       0.750652        0.00000    
     0.808     0.335     0.000  -0.334848       0.808395        0.00000    
     0.866     0.359     0.000  -0.358766       0.866137        0.00000    
     0.924     0.383     0.000  -0.382683       0.923880        0.00000    
     0.000     0.000     0.063    0.00000        0.00000      -0.340990E-03
     0.058     0.024     0.063  -0.977832E-02   0.241830E-01  -0.338923E-03
     0.115     0.048     0.063  -0.202686E-01   0.499911E-01  -0.325334E-03
     0.173     0.072     0.063  -0.306190E-01   0.756476E-01  -0.322266E-03
     0.231     0.096     0.063  -0.409438E-01   0.101090      -0.318205E-03
     0.289     0.120     0.063  -0.512853E-01   0.126726      -0.318957E-03
     0.346     0.144     0.063  -0.615720E-01   0.152052      -0.315820E-03
     0.404     0.167     0.063  -0.719475E-01   0.177744      -0.306302E-03
     0.462     0.191     0.063  -0.822568E-01   0.203130      -0.295588E-03
     0.520     0.215     0.063  -0.927519E-01   0.229146      -0.304407E-03
     0.577     0.239     0.063  -0.103466       0.255205      -0.293779E-03
     0.635     0.263     0.063  -0.114851       0.283011      -0.202208E-03
     0.693     0.287     0.063  -0.127438       0.313927      -0.783229E-04
     0.751     0.311     0.063  -0.143859       0.354002       0.207215E-04
     0.808     0.335     0.063  -0.172159       0.419109       0.218690E-03
     0.866     0.359     0.063  -0.243136       0.589439       0.939825E-03
     0.924     0.383     0.063  -0.382683       0.923880        0.00000    
     0.000     0.000     0.125    0.00000        0.00000      -0.580150E-03
     0.058     0.024     0.125  -0.417072E-02   0.103324E-01  -0.580235E-03
     0.115     0.048     0.125  -0.794421E-02   0.196212E-01  -0.566165E-03
     0.173     0.072     0.125  -0.119778E-01   0.295835E-01  -0.565444E-03
     0.231     0.096     0.125  -0.156068E-01   0.384570E-01  -0.559384E-03
     0.289     0.120     0.125  -0.197363E-01   0.486809E-01  -0.557860E-03
     0.346     0.144     0.125  -0.233516E-01   0.574331E-01  -0.548929E-03
     0.404     0.167     0.125  -0.275826E-01   0.679418E-01  -0.537850E-03
     0.462     0.191     0.125  -0.312547E-01   0.767758E-01  -0.511000E-03
     0.520     0.215     0.125  -0.357915E-01   0.880177E-01  -0.478382E-03
     0.577     0.239     0.125  -0.401402E-01   0.981082E-01  -0.425641E-03
     0.635     0.263     0.125  -0.461921E-01   0.112864      -0.299659E-03
     0.693     0.287     0.125  -0.540067E-01   0.131754      -0.532267E-04
     0.751     0.311     0.125  -0.687203E-01   0.166969       0.339255E-03
     0.808     0.335     0.125  -0.100172       0.238580       0.779898E-03
     0.866     0.359     0.125  -0.193136       0.465685       0.116391E-02
     0.924     0.383     0.125  -0.382683       0.923880        0.00000    
     0.000     0.000     0.188    0.00000        0.00000      -0.672798E-03
     0.058     0.024     0.188  -0.161897E-02   0.390047E-02  -0.684332E-03
     0.115     0.048     0.188  -0.337119E-02   0.808940E-02  -0.691226E-03
     0.173     0.072     0.188  -0.502395E-02   0.120380E-01  -0.696977E-03
     0.231     0.096     0.188  -0.668462E-02   0.159906E-01  -0.698125E-03
     0.289     0.120     0.188  -0.834544E-02   0.199493E-01  -0.694126E-03
     0.346     0.144     0.188  -0.100237E-01   0.239079E-01  -0.683669E-03
     0.404     0.167     0.188  -0.117486E-01   0.280158E-01  -0.665506E-03
     0.462     0.191     0.188  -0.135478E-01   0.322803E-01  -0.633987E-03
     0.520     0.215     0.188  -0.156184E-01   0.371670E-01  -0.578092E-03
     0.577     0.239     0.188  -0.182975E-01   0.432674E-01  -0.490139E-03
     0.635     0.263     0.188  -0.222556E-01   0.526479E-01  -0.328924E-03
     0.693     0.287     0.188  -0.292742E-01   0.700120E-01  -0.721306E-04
     0.751     0.311     0.188  -0.444185E-01   0.106249       0.393140E-03
     0.808     0.335     0.188  -0.809320E-01   0.191728       0.882513E-03
     0.866     0.359     0.188  -0.180421       0.434861       0.127224E-02
     0.924     0.383     0.188  -0.382683       0.923880        0.00000    
     0.000     0.000     0.250    0.00000        0.00000      -0.605478E-03
     0.058     0.024     0.250  -0.758810E-03   0.169115E-02  -0.611833E-03
     0.115     0.048     0.250  -0.148924E-02   0.329488E-02  -0.617835E-03
     0.173     0.072     0.250  -0.223127E-02   0.493853E-02  -0.620311E-03
     0.231     0.096     0.250  -0.297180E-02   0.657472E-02  -0.617872E-03
     0.289     0.120     0.250  -0.371181E-02   0.820569E-02  -0.611631E-03
     0.346     0.144     0.250  -0.451269E-02   0.996802E-02  -0.595630E-03
     0.404     0.167     0.250  -0.530366E-02   0.117102E-01  -0.572496E-03
     0.462     0.191     0.250  -0.628056E-02   0.139429E-01  -0.532463E-03
     0.520     0.215     0.250  -0.743624E-02   0.165370E-01  -0.469071E-03
     0.577     0.239     0.250  -0.945425E-02   0.210647E-01  -0.364041E-03
     0.635     0.263     0.250  -0.127268E-01   0.287746E-01  -0.199630E-03
     0.693     0.287     0.250  -0.197818E-01   0.463872E-01   0.444673E-04
     0.751     0.311     0.250  -0.350178E-01   0.831732E-01   0.369608E-03
     0.808     0.335     0.250  -0.730849E-01   0.172264       0.710583E-03
     0.866     0.359     0.250  -0.175597       0.424108       0.683127E-03
     0.924     0.383     0.250  -0.382683       0.923880        0.00000    
     0.000     0.000     0.313    0.00000        0.00000      -0.490243E-03
     0.058     0.024     0.313  -0.346177E-03   0.638359E-03  -0.484541E-03
     0.115     0.048     0.313  -0.718191E-03   0.133434E-02  -0.483003E-03
     0.173     0.072     0.313  -0.106978E-02   0.199366E-02  -0.477508E-03
     0.231     0.096     0.313  -0.143611E-02   0.268556E-02  -0.470538E-03
     0.289     0.120     0.313  -0.179720E-02   0.336540E-02  -0.459183E-03
     0.346     0.144     0.313  -0.220179E-02   0.414173E-02  -0.442815E-03
     0.404     0.167     0.313  -0.263378E-02   0.499433E-02  -0.415883E-03
     0.462     0.191     0.313  -0.319787E-02   0.622605E-02  -0.376762E-03
     0.520     0.215     0.313  -0.403615E-02   0.806973E-02  -0.312380E-03
     0.577     0.239     0.313  -0.565109E-02   0.116873E-01  -0.218961E-03
     0.635     0.263     0.313  -0.874980E-02   0.190825E-01  -0.680306E-04
     0.693     0.287     0.313  -0.155112E-01   0.361899E-01   0.126539E-03
     0.751     0.311     0.313  -0.313496E-01   0.746298E-01   0.376640E-03
     0.808     0.335     0.313  -0.705734E-01   0.166899       0.574205E-03
     0.866     0.359     0.313  -0.174062       0.420585       0.472371E-03
     0.924     0.383     0.313  -0.382683       0.923880        0.00000    
     0.000     0.000     0.375    0.00000        0.00000      -0.319251E-03
     0.058     0.024     0.375  -0.200682E-03   0.272388E-03  -0.323321E-03