# vtk DataFile Version 2.0
File written by itkPolyDataMeshIO
ASCII
DATASET POLYDATA
POINTS 3132 float
26.5334 10.5538 53.0757
26.5335 11.2307 52.9804
26.5337 11.9076 52.8851
26.5338 12.5846 52.7899
26.5339 13.2615 52.6946
26.534 13.9384 52.5993
26.5349 9.10468 52.5893
26.5342 10.1692 52.786
26.535 9.7816 52.494
26.535 14.2281 52.2147
26.5359 14.5201 51.8271
26.536 15.197 51.7319
26.5337 -7.23674 54.1989
26.5339 -6.55982 54.1036
26.534 -5.8829 54.0083
26.5341 -5.20597 53.9131
26.5342 -4.52905 53.8178
26.5343 -3.85213 53.7225
26.5345 -3.17521 53.6273
26.5346 -2.49828 53.532
26.5347 -1.82136 53.4367
26.5348 -1.14444 53.3414
26.5349 -0.467515 53.2462
26.5351 0.209408 53.1509
26.5352 0.886331 53.0556
26.5353 1.56325 52.9604
26.5354 2.24018 52.8651
26.5356 2.9171 52.7698
26.5357 3.59402 52.6745
26.5358 4.27095 52.5793
26.5359 4.94787 52.484
26.536 5.62479 52.3887
26.5362 6.30171 52.2935
26.5363 6.97864 52.1982
26.5364 7.65556 52.1029
26.5357 8.72009 52.2996
26.5365 8.33248 52.0076
26.5369 15.4867 51.3473
26.5379 15.7786 50.9597
26.5345 -7.62133 53.9092
26.5353 -8.00894 53.6172
26.5388 16.0683 50.5751
26.5362 -8.39352 53.3276
26.5405 15.973 49.8982
26.5415 16.265 49.5106
26.5379 -8.48879 52.6506
26.5424 16.5547 49.126
26.5433 16.8467 48.7384
26.5396 -8.58406 51.9737
26.5406 -8.29438 51.5891
26.5442 17.1364 48.3538
26.5415 -8.00241 51.2015
26.5424 -7.71272 50.8169
26.546 17.0411 47.6769
26.5433 -7.42076 50.4293
26.5477 16.9458 46.9999
26.5487 17.2378 46.6123
26.5451 -7.51603 49.7524
26.546 -7.22634 49.3678
26.5496 17.5275 46.2278
26.5469 -6.93438 48.9802
26.5513 17.4322 45.5508
26.5487 -7.02965 48.3033
26.5496 -6.73996 47.9187
26.5531 17.3369 44.8739
26.5505 -6.448 47.5311
26.5515 -6.15831 47.1465
26.5548 17.2416 44.197
26.5524 -5.86635 46.7589
26.5565 17.1464 43.5201
26.5573 16.7618 43.2304
26.5541 -5.96162 46.082
26.5581 16.3742 42.9384
26.5559 -6.05689 45.4051
26.5599 16.2789 42.2615
26.5576 -6.15216 44.7282
26.5616 16.1836 41.5846
26.5593 -6.24743 44.0512
26.5634 16.0884 40.9077
26.5642 15.7038 40.618
26.5611 -6.3427 43.3743
26.565 15.3162 40.326
26.5628 -6.43797 42.6974
26.5636 -6.82558 42.4054
26.5667 15.2209 39.6491
26.5675 14.8363 39.3594
26.5644 -7.21017 42.1157
26.5683 14.4487 39.0674
26.5691 14.0641 38.7778
26.5662 -7.30544 41.4388
26.567 -7.69305 41.1469
26.5699 13.6765 38.4858
26.5707 13.2919 38.1961
26.5678 -8.07763 40.8572
26.5716 12.9043 37.9041
26.5695 -8.1729 40.1803
26.5733 12.809 37.2272
26.5741 12.4245 36.9375
26.5713 -8.26817 39.5033
26.5721 -8.65578 39.2114
26.5749 12.0369 36.6456
26.5729 -9.04037 38.9217
26.5766 11.9416 35.9687
26.5746 -9.13564 38.2448
26.5784 11.8463 35.2917
26.5763 -9.23091 37.5678
26.5801 11.751 34.6148
26.5781 -9.32618 36.8909
26.5819 11.6558 33.9379
26.5798 -9.42145 36.214
26.5836 11.5605 33.261
26.5816 -9.51672 35.5371
26.5853 11.4652 32.5841
26.5833 -9.61199 34.8602
26.5871 11.37 31.9071
26.585 -9.70727 34.1832
26.5858 -10.0949 33.8913
26.5888 11.2747 31.2302
26.5897 11.5667 30.8426
26.5866 -10.4795 33.6016
26.5907 11.8563 30.458
26.5884 -10.5747 32.9247
26.5892 -10.9623 32.6327
26.5924 11.7611 29.7811
26.5933 12.053 29.3935
26.59 -11.3469 32.343
26.5943 12.3427 29.0089
26.5952 12.6347 28.6213
26.5917 -11.4422 31.6661
26.5925 -11.8298 31.3741
26.5961 12.9244 28.2367
26.597 13.2163 27.8491
26.5972 13.8933 27.7538
26.5933 -12.2144 31.0845
26.5942 -12.602 30.7925
26.5981 14.1829 27.3693
26.595 -12.9866 30.5028
26.5998 14.0877 26.6923
26.6006 13.7031 26.4027
26.5967 -13.0819 29.8259
26.5975 -13.4695 29.5339
26.6019 10.9001 26.1068
26.602 11.5771 26.0116
26.6021 12.254 25.9163
26.6014 13.3155 26.1107
26.6022 12.9309 25.821
26.5983 -13.854 29.2442
26.6022 2.68178 26.5732
26.6023 3.35871 26.4779
26.6024 4.03563 26.3826
26.6025 4.71255 26.2873
26.6026 5.38948 26.1921
26.6028 6.0664 26.0968
26.6029 6.74332 26.0015
26.603 7.42024 25.9063
26.6031 8.09717 25.811
26.6033 8.77409 25.7157
26.6034 9.45101 25.6204
26.6027 10.5125 25.8149
26.6035 10.1279 25.5252
26.6001 -13.9493 28.5673
26.6033 -0.798101 26.3726
26.6034 -0.121178 26.2773
26.6035 0.555745 26.182
26.6037 1.23267 26.0868
26.603 2.29417 26.2812
26.6038 1.90959 25.9915
26.6018 -14.0446 27.8904
26.6039 -6.98568 26.5531
26.6041 -6.30875 26.4578
26.6042 -5.63183 26.3626
26.6043 -4.95491 26.2673
26.6044 -4.27799 26.172
26.6045 -3.60106 26.0768
26.6047 -2.92414 25.9815
26.6048 -2.24722 25.8862
26.6041 -1.18571 26.0806
26.6049 -1.57029 25.7909
26.6035 -14.1399 27.2135
26.6045 -13.8502 26.8289
26.6053 -9.11172 26.162
26.6054 -8.43479 26.0667
26.6047 -7.37329 26.2611
26.6055 -7.75787 25.9715
26.6054 -13.5582 26.4413
26.6063 -13.2685 26.0567
26.6064 -12.5916 25.9614
26.6066 -11.9147 25.8662
26.6067 -11.2378 25.7709
26.6068 -10.5608 25.6756
26.6061 -9.49933 25.87
26.6069 -9.88391 25.5804
22.1273 15.6726 55.1053
22.1275 16.3495 55.01
22.1276 17.0264 54.9147
22.1288 14.2234 54.6189
22.1281 15.288 54.8156
22.129 14.9004 54.5236
22.1285 17.3161 54.5302
22.1294 17.6081 54.1425
22.1303 12.7743 54.1325
22.1296 13.8389 54.3292
22.1304 13.4512 54.0373
22.1304 17.8977 53.758
22.1317 10.6483 53.7414
22.1318 11.3252 53.6461
22.1311 12.3897 53.8428
22.1319 12.0021 53.5509
22.1321 17.8025 53.081
22.1329 17.4179 52.7914
22.1299 -9.07775 55.8274
22.13 -8.40083 55.7321
22.1301 -7.72391 55.6368
22.1303 -7.04698 55.5415
22.1304 -6.37006 55.4463
22.1305 -5.69314 55.351
22.1306 -5.01621 55.2557
22.1308 -4.33929 55.1605
22.1309 -3.66237 55.0652
22.131 -2.98545 54.9699
22.1311 -2.30852 54.8746
22.1312 -1.6316 54.7794
22.1314 -0.954678 54.6841
22.1315 -0.277755 54.5888
22.1316 0.399168 54.4936
22.1317 1.07609 54.3983
22.1319 1.75301 54.303
22.132 2.42994 54.2077
22.1321 3.10686 54.1125
22.1322 3.78378 54.0172
22.1323 4.4607 53.9219
22.1325 5.13763 53.8267
22.1326 5.81455 53.7314
22.1327 6.49147 53.6361
22.1328 7.1684 53.5409
22.1329 7.84532 53.4456
22.1331 8.52224 53.3503
22.1332 9.19916 53.255
22.1325 10.2637 53.4517
22.1333 9.87609 53.1598
22.1337 17.0303 52.4994
22.1312 -11.8807 55.5315
22.1313 -11.2038 55.4363
22.1314 -10.5269 55.341
22.1307 -9.46233 55.5377
22.1315 -9.84995 55.2457
22.1355 16.935 51.8225
22.1327 -13.3298 55.0451
22.132 -12.2653 55.2418
22.1328 -12.6529 54.9499
22.1372 16.8397 51.1456
22.1381 17.1317 50.7579
22.1335 -13.7144 54.7555
22.139 17.4214 50.3734
22.14 17.7133 49.9858
22.1352 -13.8097 54.0785
22.1409 18.003 49.6012
22.1418 18.295 49.2136
22.1369 -13.905 53.4016
22.1377 -14.2926 53.1097
22.1428 18.5847 48.829
22.1437 18.8766 48.4414
22.1438 19.5536 48.3461
22.1385 -14.6771 52.82
22.1447 19.8433 47.9615
22.1457 20.1352 47.5739
22.1403 -14.7724 52.1431
22.1472 18.6865 47.0902
22.1473 19.3634 46.9949
22.1466 20.4249 47.1893
22.1474 20.0403 46.8996
22.1475 20.7169 46.8017
22.1477 21.3938 46.7064
22.142 -14.8677 51.4661
22.1429 -14.578 51.0816
22.1485 16.5604 46.6991
22.1487 17.2374 46.6038
22.148 18.2989 46.7982
22.1488 17.9143 46.5085
22.1483 20.3323 46.512
22.1493 20.622 46.1275
22.1486 21.6835 46.3219
22.1494 21.2989 46.0322
22.1439 -14.286 50.6939
22.15 15.1113 46.2127
22.1493 16.1728 46.4071
22.1502 15.7882 46.1174
22.1456 -14.3813 50.017
22.1508 14.7237 45.9207
22.1516 14.3391 45.6311
22.1474 -14.4766 49.3401
22.1525 13.9515 45.3391
22.1533 13.5669 45.0494
22.1491 -14.5719 48.6632
22.15 -14.2822 48.2786
22.1541 13.1793 44.7574
22.1549 12.7947 44.4678
22.1509 -13.9902 47.891
22.1557 12.4071 44.1758
22.1527 -14.0855 47.2141
22.1536 -13.7958 46.8295
22.1558 -1.61118 45.1146
22.1559 -0.934255 45.0193
22.156 -0.257332 44.9241
22.1574 12.3119 43.4989
22.1582 11.9273 43.2092
22.1545 -13.5038 46.4419
22.1573 -3.06029 44.6282
22.1566 -1.99879 44.8226
22.1574 -2.38337 44.533
22.157 0.0346346 44.5365
22.1579 0.32432 44.1519
22.158 1.00124 44.0566
22.159 11.5397 42.9172
22.1563 -13.5991 45.765
22.1572 -13.3094 45.3804
22.1581 -3.44791 44.3363
22.1589 -3.83249 44.0466
22.159 1.29321 43.669
22.1599 1.58289 43.2844
22.1608 11.4444 42.2403
22.1581 -13.0174 44.9928
22.1597 -4.2201 43.7546
22.1605 -4.60468 43.4649
22.1608 1.87486 42.8968
22.1617 2.16455 42.5122
22.1625 11.3491 41.5634
22.1633 10.9645 41.2737
22.1599 -13.1127 44.3158
22.1608 -12.823 43.9313
22.1613 -4.99229 43.173
22.1627 2.45651 42.1246
22.1636 2.7462 41.74
22.1641 10.5769 40.9817
22.1617 -12.5311 43.5437
22.1631 -5.08756 42.496
22.1639 -5.47215 42.2064
22.1645 3.03816 41.3524
22.1655 3.32785 40.9678
22.1659 10.4817 40.3048
22.1635 -12.6263 42.8667
22.1647 -5.85976 41.9144
22.1664 3.61982 40.5802
22.1676 10.3864 39.6279
22.1685 10.6784 39.2403
22.1652 -12.7216 42.1898
22.1664 -5.95503 41.2375
22.1681 3.52454 39.9033
22.1691 3.81423 39.5187
22.1695 10.968 38.8557
22.1669 -12.8169 41.5129
22.1682 -6.0503 40.5606
22.17 4.1062 39.1311
22.1712 10.8728 38.1788
22.1687 -12.9121 40.836
22.1699 -6.14557 39.8836
22.1717 4.01093 38.4542
22.1729 10.7775 37.5019
22.1739 11.0695 37.1143
22.1704 -13.0074 40.1591
22.1716 -6.24084 39.2067
22.1726 -5.94888 38.8191
22.1735 3.91565 37.7773
22.1743 3.52804 37.4853
22.1748 11.3591 36.7297
22.1722 -13.1027 39.4821
22.1735 -5.65919 38.4345
22.1751 3.14346 37.1956
22.1765 11.2639 36.0527
22.1775 11.5558 35.6651
22.1739 -13.198 38.8052
22.1752 -5.75446 37.7576
22.1762 -5.4625 37.37
22.1768 3.04819 36.5187
22.1776 2.66058 36.2267
22.1784 11.8455 35.2806
22.1793 12.1375 34.8929
22.1756 -13.2932 38.1283
22.1764 -13.6808 37.8363
22.1771 -5.17281 36.9854
22.178 -4.88084 36.5978
22.1784 2.276 35.9371
22.1792 1.88838 35.6451
22.1803 12.4272 34.5084
22.1812 12.7191 34.1208
22.1772 -14.0654 37.5466
22.1789 -4.59116 36.2132
22.1799 -4.29919 35.8256
22.18 -3.62227 35.7303
22.1807 0.439267 35.1587
22.18 1.5038 35.3554
22.1809 1.11619 35.0634
22.1821 13.0088 33.7362
22.183 13.3008 33.3486
22.1832 13.9777 33.2533
22.179 -14.1607 36.8697
22.1809 -3.33258 35.3458
22.1819 -3.04062 34.9582
22.182 -2.3637 34.8629
22.1821 -1.68677 34.7676
22.1822 -1.00985 34.6723
22.1815 0.0546844 34.869
22.1823 -0.332927 34.5771
22.1841 14.2674 32.8687
22.185 14.5594 32.4811
22.1807 -14.256 36.1928
22.1859 14.8491 32.0965
22.1825 -14.3512 35.5159
22.1833 -14.7388 35.2239
[...]
POINT_DATA 3132
COLOR_SCALARS PointColorScalarData  3
112  215  77
114  212  81
118  207  89
125  198  99
135  185  110
146  168  122
155  150  135
159  133  147
160  117  159
158  103  170
155  90  181
149  79  190
143  71  198
135  66  205
126  64  211
118  64  216
109  65  220
112  215  77
114  212  81
118  207  89
125  198  99
135  185  110
146  168  122
155  150  135
159  133  147
160  117  159
158  103  170
155  90  181
149  79  190
143  71  198
135  66  205
126  64  211
118  64  216
109  65  220
112  215  77
114  212  81
118  207  89
125  198  99
135  185  110
146  168  122
155  150  135
159  133  147
160  117  159
158  103  170
155  90  181
149  79  190
143  71  198
135  66  205
126  64  211
118  64  216
109  65  220
112  215  77
114  212  81
118  207  89
125  198  99
135  185  110
146  168  122
155  150  135
159  133  147
160  117  159
158  103  170
155  90  181
149  79  190
143  71  198
135  66  205
126  64  211
118  64  216
109  65  220
112  215  77
114  212  81
118  207  89
125  198  99
135  185  110
146  168  122
155  150  135
159  133  147
160  117  159
158  103  170
155  90  181
149  79  190
143  71  198
135  66  205
126  64  211
118  64  216
109  65  220
112  215  77
114  212  81
118  207  89
125  198  99
135  185  110
146  168  122
155  150  135
159  133  147
160  117  159
158  103  170
155  90  181
149  79  190
143  71  198
135  66  205
126  64  211
118  64  216
109  65  220
112  215  77
114  212  81
118  207  89
125  198  99
135  185  110
146  168  122
155  150  135
159  133  147
160  117  159
158  103  170
155  90  181
149  79  190
143  71  198
135  66  205
126  64  211
118  64  216
109  65  220
112  215  77
114  212  81
118  207  89
125  198  99
135  185  110
146  168  122
155  150  135
159  133  147
160  117  159
158  103  170
155  90  181
149  79  190
143  71  198
135  66  205
126  64  211
118  64  216
109  65  220
112  215  77
114  212  81
118  207  89
125  198  99
135  185  110
146  168  122
155  150  135
159  133  147
160  117  159
158  103  170
155  90  181
149  79  190
143  71  198
135  66  205
126  64  211
118  64  216
109  65  220
112  215  77
114  212  81
118  207  89
125  198  99
135  185  110
146  168  122
155  150  135
159  133  147
160  117  159
158  103  170
155  90  181
149  79  190
143  71  198
135  66  205
126  64  211
118  64  216
109  65  220
112  215  77
114  212  81
118  207  89
125  198  99
135  185  110
146  168  122
155  150  135
159  133  147
160  117  159
158  103  170
155  90  181
149  79  190
143  71  198
135  66  205
126  64  211
118  64  216
109  65  220
112  215  77
114  212  81
118  207  89
125  198  99
135  185  110
146  168  122
155  150  135
159  133  147
160  117  159
158  103  170
155  90  181
149  79  190
143  71  198
135  66  205
126  64  211
118  64  216
109  65  220
112  215  77
114  212  81
118  207  89
125  198  99
135  185  110
146  168  122
155  150  135
159  133  147
160  117  159
158  103  170
155  90  181
149  79  190
143  71  198
135  66  205
126  64  211
118  64  216
109  65  220
112  215  77
114  212  81
118  207  89
125  198  99
135  185  110
146  168  122
155  150  135
159  133  147
160  117  159
158  103  170
155  90  181
149  79  190
143  71  198
135  66  205
126  64  211
118  64  216
109  65  220
112  215  77
114  212  81
118  207  89
125  198  99
135  185  110
146  168  122
155  150  135
159  133  147
160  117  159
158  103  170
155  90  181
149  79  190
143  71  198
135  66  205
126  64  211
118  64  216
109  65  220
112  215  77
114  212  81
118  207  89
125  198  99
135  185  110
146  168  122
155  150  135
159  133  147
160  117  159
158  103  170
155  90  181
149  79  190
143  71  198
135  66  205
126  64  211
118  64  216
109  65  220
112  215  77
114  212  81
118  207  89
125  198  99
135  185  110
146  168  122
155  150  135
159  133  147
160  117  159
158  103  170
155  90  181
149  79  190
143  71  198
135  66  205
126  64  211
118  64  216
109  65  220
112  215  77
114  212  81
118  207  89
125  198  99
135  185  110
146  168  122
155  150  135
159  133  147
160  117  159
158  103  170
155  90  181
149  79  190
143  71  198
135  66  205
126  64  211
118  64  216
109  65  220
112  215  77
114  212  81
118  207  89
125  198  99
135  185  110
146  168  122
155  150  135
159  133  147
160  117  159
158  103  170
155  90  181
149  79  190
143  71  198
135  66  205
126  64  211
118  64  216
109  65  220
112  215  77
114  212  81
118  207  89
125  198  99
135  185  110
146  168  122
155  150  135
159  133  147
160  117  159
158  103  170
155  90  181
149  79  190
143  71  198
135  66  205
126  64  211
118  64  216
109  65  220
112  215  77
114  212  81
118  207  89
125  198  99
135  185  110
146  168  122
155  150  135
159  133  147
160  117  159
158  103  170
155  90  181
149  79  190
143  71  198
135  66  205
126  64  211
118  64  216
109  65  220
112  215  77
114  212  81
118  207  89
125  198  99
135  185  110
146  168  122
155  150  135
159  133  147
160  117  159
158  103  170
155  90  181
149  79  190
143  71  198
135  66  205
126  64  211
118  64  216
109  65  220
112  215  77
114  212  81
118  207  89
125  198  99
135  185  110
146  168  122
155  150  135
159  133  147
160  117  159
158  103  170
155  90  181
149  79  190
143  71  198
135  66  205
126  64  211
118  64  216
109  65  220
112  215  77
114  212  81
118  207  89
125  198  99
135  185  110
146  168  122
155  150  135
159  133  147
160  117  159
158  103  170
155  90  181
149  79  190
143  71  198
135  66  205
126  64  211
118  64  216
109  65  220
112  215  77
114  212  81
118  207  89
125  198  99
135  185  110
146  168  122
155  150  135
159  133  147
160  117  159
158  103  170
155  90  181
149  79  190
143  71  198
135  66  205
126  64  211
118  64  216
109  65  220
112  215  77
114  212  81
118  207  89
125  198  99
135  185  110
146  168  122
155  150  135
159  133  147
160  117  159
158  103  170
155  90  181
149  79  190
143  71  198
135  66  205
126  64  211
118  64  216
109  65  220
112  215  77
114  212  81
118  207  89
125  198  99
135  185  110
146  168  122
155  150  135
159  133  147
160  117  159
158  103  170
155  90  181
149  79  190
143  71  198
135  66  205
126  64  211
118  64  216
109  65  220
112  215  77
114  212  81
118  207  89
125  198  99
135  185  110
146  168  122
155  150  135
159  133  147
160  117  159
158  103  170
155  90  181
149  79  190
143  71  198
135  66  205
126  64  211
118  64  216
109  65  220
112  215  77
114  212  81
118  207  89
125  198  99
135  185  110
146  168  122
155  150  135
159  133  147
160  117  159
158  103  170
155  90  181
149  79  190
143  71  198
135  66  205
126  64  211
118  64  216
109  65  220
112  215  77
114  212  81
118  207  89
125  198  99
135  185  110
146  168  122
155  150  135
159  133  147
160  117  159
158  103  170
155  90  181
149  79  190
143  71  198
135  66  205
126  64  211
118  64  216
109  65  220
112  215  77
114  212  81
118  207  89
125  198  99
135  185  110
146  168  122
155  150  135
159  133  147
160  117  159
158  103  170
155  90  181
149  79  190
143  71  198
135  66  205
126  64  211
118  64  216
109  65  220
112  215  77
114  212  81
118  207  89
125  198  99
135  185  110
146  168  122
155  150  135
159  133  147
160  117  159
158  103  170
155  90  181
149  79  190
143  71  198
135  66  205
126  64  211
118  64  216
109  65  220
112  215  77
114  212  81
118  207  89
125  198  99
135  185  110
146  168  122
155  150  135
159  133  147
160  117  159
158  103  170
155  90  181
149  79  190
143  71  198
135  66  205
126  64  211
118  64  216
109  65  220
112  215  77
114  212  81
118  207  89
125  198  99
135  185  110
146  168  122
155  150  135
159  133  147
160  117  159
158  103  170
155  90  181
149  79  190
143  71  198
135  66  205
126  64  211
118  64  216
109  65  220
112  215  77
114  212  81
118  207  89
125  198  99
135  185  110
146  168  122
155  150  135
159  133  147
160  117  159
158  103  170
155  90  181
149  79  190
143  71  198
135  66  205
126  64  211
118  64  216
109  65  220
112  215  77
114  212  81
118  207  89
125  198  99
135  185  110
146  168  122
155  150  135
159  133  147
160  117  159
158  103  170
155  90  181
149  79  190
143  71  198
135  66  205
126  64  211
118  64  216
109  65  220
112  215  77
114  212  81
118  207  89
125  198  99
135  185  110
146  168  122
155  150  135
159  133  147
160  117  159
158  103  170
155  90  181
149  79  190
143  71  198
135  66  205
126  64  211
118  64  216
109  65  220
112  215  77
114  212  81
118  207  89
125  198  99
135  185  110
146  168  122
155  150  135
159  133  147
160  117  159
158  103  170
155  90  181
149  79  190
143  71  198
135  66  205
126  64  211
118  64  216
109  65  220
112  215  77
114  212  81
118  207  89
125  198  99
135  185  110
146  168  122
155  150  135
159  133  147
160  117  159
158  103  170
155  90  181
149  79  190
143  71  198
135  66  205
126  64  211
118  64  216
109  65  220
112  215  77
114  212  81
118  207  89
125  198  99
135  185  110
146  168  122
155  150  135
159  133  147
160  117  159
158  103  170
155  90  181
149  79  190
143  71  198
135  66  205
126  64  211
118  64  216
109  65  220
112  215  77
114  212  81
118  207  89
125  198  99
135  185  110
146  168  122
155  150  135
159  133  147
160  117  159
158  103  170
155  90  181
149  79  190
143  71  198
135  66  205
126  64  211
118  64  216
109  65  220
112  215  77
114  212  81
118  207  89
125  198  99
135  185  110
146  168  122
155  150  135
159  133  147
160  117  159
158  103  170
155  90  181
149  79  190
143  71  198
135  66  205
126  64  211
118  64  216
109  65  220
112  215  77
114  212  81
118  207  89
125  198  99
135  185  110
146  168  122
155  150  135
159  133  147
160  117  159
158  103  170
155  90  181
149  79  190
143  71  198
135  66  205
126  64  211
118  64  216
109  65  220
112  215  77
114  212  81
118  207  89
125  198  99
135  185  110
146  168  122
155  150  135
159  133  147
160  117  159
158  103  170
155  90  181
149  79  190
143  71  198
135  66  205
126  64  211
118  64  216
109  65  220
112  215  77
114  212  81
118  207  89
125  198  99
135  185  110
146  168  122
155  150  135
159  133  147
160  117  159
158  103  170
155  90  181
149  79  190
143  71  198
135  66  205
126  64  211
118  64  216
109  65  220
112  215  77
114  212  81
118  207  89
125  198  99
135  185  110
146  168  122
155  150  135
159  133  147
160  117  159
158  103  170
155  90  181
149  79  190
143  71  198
135  66  205
126  64  211
118  64  216
109  65  220
112  215  77
114  212  81
118  207  89
125  198  99
135  185  110
146  168  122
155  150  135
159  133  147
160  117  159
158  103  170
155  90  181
149  79  190
143  71  198
135  66  205
126  64  211
118  64  216
109  65  220
112  215  77
114  212  81
118  207  89
125  198  99
135  185  110
146  168  122
155  150  135
159  133  147
160  117  159
158  103  170
155  90  181
149  79  190
143  71  198
135  66  205
126  64  211
118  64  216
109  65  220
112  215  77
114  212  81
118  207  89
125  198  99
135  185  110
146  168  122
155  150  135
159  133  147
160  117  159
158  103  170
155  90  181
149  79  190
143  71  198
135  66  205
126  64  211
118  64  216
109  65  220
112  215  77
114  212  81
118  207  89
125  198  99
135  185  110
146  168  122
155  150  135
159  133  147
160  117  159
158  103  170
155  90  181
149  79  190
143  71  198
135  66  205
126  64  211
118  64  216
109  65  220
112  215  77
114  212  81
118  207  89
125  198  99
135  185  110
146  168  122
155  150  135
159  133  147
160  117  159
158  103  170
155  90  181
149  79  190
143  71  198
135  66  205
126  64  211
118  64  216
109  65  220
112  215  77
114  212  81
118  207  89
125  198  99
135  185  110
146  168  122
155  150  135
159  133  147
160  117  159
158  103  170
155  90  181
149  79  190
143  71  198
135  66  205
126  64  211
118  64  216
109  65  220
112  215  77
114  212  81
118  207  89
125  198  99
135  185  110
146  168  122
155  150  135
159  133  147
160  117  159
158  103  170
155  90  181
149  79  190
143  71  198
135  66  205
126  64  211
118  64  216
109  65  220
112  215  77
114  212  81
118  207  89
125  198  99
135  185  110
146  168  122
155  150  135
159  133  147
160  117  159
158  103  170
155  90  181
149  79  190
143  71  198
135  66  205
126  64  211
118  64  216
109  65  220
112  215  77
114  212  81
118  207  89
125  198  99
135  185  110
146  168  122
155  150  135
159  133  147
160  117  159
158  103  170
155  90  181
149  79  190
143  71  198
135  66  205
126  64  211
118  64  216
109  65  220
112  215  77
114  212  81
118  207  89
125  198  99
135  185  110
146  168  122
155  150  135
159  133  147
160  117  159
158  103  170
155  90  181
149  79  190
143  71  198
135  66  205
126  64  211
118  64  216
109  65  220
112  215  77
114  212  81
118  207  89
125  198  99
135  185  110
146  168  122
155  150  135
159  133  147
160  117  159
158  103  170
155  90  181
149  79  190
143  71  198
135  66  205
126  64  211
118  64  216
109  65  220
112  215  77
114  212  81
118  207  89
125  198  99
135  185  110
146  168  122
155  150  135
159  133  147
160  117  159
158  103  170
155  90  181
149  79  190
143  71  198
135  66  205
126  64  211
118  64  216
109  65  220
112  215  77
114  212  81
118  207  89
125  198  99
135  185  110
146  168  122
155  150  135
159  133  147
160  117  159
158  103  170
155  90  181
149  79  190
143  71  198
135  66  205
126  64  211
118  64  216
109  65  220
112  215  77
114  212  81
118  207  89
125  198  99
135  185  110
146  168  122
155  150  135
159  133  147
160  117  159
158  103  170
155  90  181
149  79  190
143  71  198
135  66  205
126  64  211
118  64  216
109  65  220
112  215  77
114  212  81
118  207  89
125  198  99
135  185  110
146  168  122
155  150  135
159  133  147
160  117  159
158  103  170
155  90  181
149  79  190
143  71  198
135  66  205
126  64  211
118  64  216
109  65  220
112  215  77
114  212  81
118  207  89
125  198  99
135  185  110
146  168  122
155  150  135
159  133  147
160  117  159
158  103  170
155  90  181
149  79  190
143  71  198
135  66  205
126  64  211
118  64  216
109  65  220
112  215  77
114  212  81
118  207  89
125  198  99
135  185  110
146  168  122
155  150  135
159  133  147
160  117  159
158  103  170
155  90  181
149  79  190
143  71  198
135  66  205
126  64  211
118  64  216
109  65  220
112  215  77
114  212  81
118  207  89
125  198  99
135  185  110
146  168  122
155  150  135
159  133  147
160  117  159
158  103  170
155  90  181
149  79  190
143  71  198
135  66  205
126  64  211
118  64  216
109  65  220
112  215  77
114  212  81
118  207  89
125  198  99
135  185  110
146  168  122
155  150  135
159  133  147
160  117  159
158  103  170
155  90  181
149  79  190
143  71  198
135  66  205
126  64  211
118  64  216
109  65  220
112  215  77
114  212  81
118  207  89
125  198  99
135  185  110
146  168  122
155  150  135
159  133  147
160  117  159
158  103  170
155  90  181
149  79  190
143  71  198
135  66  205
126  64  211
118  64  216
109  65  220
112  215  77
114  212  81
118  207  89
125  198  99
135  185  110
146  168  122
155  150  135
159  133  147
160  117  159
158  103  170
155  90  181
149  79  190
143  71  198
135  66  205
126  64  211
118  64  216
109  65  220
112  215  77
114  212  81
118  207  89
125  198  99
135  185  110
146  168  122
155  150  135
159  133  147
160  117  159
158  103  170
155  90  181
149  79  190
143  71  198
135  66  205
126  64  211
118  64  216
109  65  220
112  215  77
114  212  81
118  207  89
125  198  99
135  185  110
146  168  122
155  150  135
159  133  147
160  117  159
158  103  170
155  90  181
149  79  190
143  71  198
135  66  205
126  64  211
118  64  216
109  65  220
112  215  77
114  212  81
118  207  89
125  198  99
135  185  110
146  168  122
155  150  135
159  133  147
160  117  159
158  103  170
155  90  181
149  79  190
143  71  198
135  66  205
126  64  211
118  64  216
109  65  220
112  215  77
114  212  81
118  207  89
125  198  99
135  185  110
146  168  122
155  150  135
159  133  147
160  117  159
158  103  170
155  90  181
149  79  190
143  71  198
135  66  205
126  64  211
118  64  216
109  65  220
112  215  77
114  212  81
118  207  89
125  198  99
135  185  110
146  168  122
155  150  135
159  133  147
160  117  159
158  103  170
155  90  181
149  79  190
143  71  198
135  66  205
126  64  211
118  64  216
109  65  220
112  215  77
114  212  81
118  207  89
125  198  99
135  185  110
146  168  122
155  150  135
159  133  147
160  117  159
158  103  170
155  90  181
149  79  190
143  71  198
135  66  205
126  64  211
118  64  216
109  65  220
112  215  77
114  212  81
118  207  89
125  198  99
135  185  110
146  168  122
155  150  135
159  133  147
160  117  159
158  103  170
155  90  181
149  79  190
143  71  198
135  66  205
126  64  211
118  64  216
109  65  220
112  215  77
114  212  81
118  207  89
125  198  99
135  185  110
146  168  122
155  150  135
159  133  147
160  117  159
158  103  170
155  90  181
149  79  190
143  71  198
135  66  205
126  64  211
118  64  216
109  65  220
112  215  77
114  212  81
118  207  89
125  198  99
135  185  110
146  168  122
155  150  135
159  133  147
160  117  159
158  103  170
155  90  181
149  79  190
143  71  198
135  66  205
126  64  211
118  64  216
109  65  220
112  215  77
114  212  81
118  207  89
125  198  99
135  185  110
146  168  122
155  150  135
159  133  147
160  117  159
158  103  170
155  90  181
149  79  190
143  71  198
135  66  205
126  64  211
118  64  216
109  65  220
112  215  77
114  212  81
118  207  89
125  198  99
135  185  110
146  168  122
155  150  135
159  133  147
160  117  159
158  103  170
155  90  181
149  79  190
143  71  198
135  66  205
126  64  211
118  64  216
109  65  220
112  215  77
114  212  81
118  207  89
125  198  99
135  185  110
146  168  122
155  150  135
159  133  147
160  117  159
158  103  170
155  90  181
149  79  190
143  71  198
135  66  205
126  64  211
118  64  216
109  65  220
112  215  77
114  212  81
118  207  89
125  198  99
135  185  110
146  168  122
155  150  135
159  133  147
160  117  159
158  103  170
155  90  181
149  79  190
143  71  198
135  66  205
126  64  211
118  64  216
109  65  220
112  215  77
114  212  81
118  207  89
125  198  99
135  185  110
146  168  122
155  150  135
159  133  147
160  117  159
158  103  170
155  90  181
149  79  190
143  71  198
135  66  205
126  64  211
118  64  216
109  65  220
112  215  77
114  212  81
118  207  89
125  198  99
135  185  110
146  168  122
155  150  135
159  133  147
160  117  159
158  103  170
155  90  181
149  79  190
143  71  198
135  66  205
126  64  211
118  64  216
109  65  220
112  215  77
114  212  81
118  207  89
125  198  99
135  185  110
146  168  122
155  150  135
159  133  147
160  117  159
158  103  170
155  90  181
149  79  190
143  71  198
135  66  205
126  64  211
118  64  216
109  65  220
112  215  77
114  212  81
118  207  89
125  198  99
135  185  110
146  168  122
155  150  135
159  133  147
160  117  159
158  103  170
155  90  181
149  79  190
143  71  198
135  66  205
126  64  211
118  64  216
109  65  220
112  215  77
114  212  81
118  207  89
125  198  99
135  185  110
146  168  122
155  150  135
159  133  147
160  117  159
158  103  170
155  90  181
149  79  190
143  71  198
135  66  205
126  64  211
118  64  216
109  65  220
112  215  77
114  212  81
118  207  89
125  198  99
135  185  110
146  168  122
155  150  135
159  133  147
160  117  159
158  103  170
155  90  181
149  79  190
143  71  198
135  66  205
126  64  211
118  64  216
109  65  220
112  215  77
114  212  81
118  207  89
125  198  99
135  185  110
146  168  122
155  150  135
159  133  147
160  117  159
158  103  170
155  90  181
149  79  190
143  71  198
135  66  205
126  64  211
118  64  216
109  65  220
112  215  77
114  212  81
118  207  89
125  198  99
135  185  110
146  168  122
155  150  135
159  133  147
160  117  159
158  103  170
155  90  181
149  79  190
143  71  198
135  66  205