# vtk DataFile Version 3.0
vtk output
ASCII
DATASET UNSTRUCTURED_GRID
POINTS 6 float
0 0 0 1 0 0 0.5 1 0 
0.5 0.5 1 0.5 -1 0 0.5 -0.5 1 

CELLS 3 15
4 0 1 2 3 
4 0 4 1 5 
4 5 3 1 0 

CELL_TYPES 3
10
10
10

CELL_DATA 3
FIELD FieldData 1
vtkGhostLevels 1 3 unsigned_char
0 1 2 
