# vtk DataFile Version 3.0
vtk output
ASCII
DATASET UNSTRUCTURED_GRID
POINTS 8 FLOAT
0 0 0 0 1 0 0 0 1
0 1 1 1 0 0 1 0 1
1 1 0 1 1 1
CELLS 6 30
4 0 1 2 5
4 0 2 4 5
4 2 4 5 6
4 2 5 6 7
4 2 3 5 7
4 1 2 3 5

CELL_TYPES 6
10
10
10
10
10
10

POINT_DATA 8
FIELD FieldData 2
f1 1 8 float
0 4 6 0 10 4 6 10
f2 1 8 float
0 1 0 0 10 10 9 10
